/*--------------------------------*- C++ -*----------------------------------*\
| =========                 |                                                 |
| \\      /  F ield         | OpenFOAM: The Open Source CFD Toolbox           |
|  \\    /   O peration     | Version:  5.0                                   |
|   \\  /    A nd           | Web:      www.OpenFOAM.org                      |
|    \\/     M anipulation  |                                                 |
\*---------------------------------------------------------------------------*/
FoamFile
{
    version     2.0;
    format      ascii;
    class       volScalarField;
    location    "200";
    object      epsilon;
}
// * * * * * * * * * * * * * * * * * * * * * * * * * * * * * * * * * * * * * //

dimensions      [0 2 -3 0 0 0 0];

internalField   nonuniform List<scalar> 
12225
(
285.522
270.706
257.916
243.811
232.461
223.086
216.81
212.699
212.743
213.955
217.245
220.893
228.126
232.759
241.352
246.514
255.032
262.92
52.4924
91.883
106.974
114.749
124.844
136.783
152.694
169.902
191.123
210.932
235.256
255.487
281.113
299.344
324.877
339.343
364.806
373.767
20.5285
34.8724
44.6758
50.4686
55.3968
59.6064
64.6664
69.6408
76.3224
83.1825
91.446
99.3215
108.19
116.951
125.576
135.323
142.641
153.874
16.0023
19.4862
24.0819
27.5632
30.4973
32.8687
35.1565
37.2924
39.5044
41.9171
44.3397
47.2026
49.6864
53.0435
55.4225
59.2486
61.4531
65.6767
15.0385
15.7123
17.3993
19.0782
20.6396
22.0256
23.2466
24.4308
25.4447
26.5946
27.5243
28.7586
29.6335
30.9873
31.8163
33.2696
34.0848
35.6563
14.7897
14.8256
15.2495
15.8675
16.5678
17.2869
17.9239
18.5841
19.1193
19.7341
20.1936
20.7993
21.2089
21.8234
22.1994
22.8272
23.1819
23.8622
14.7658
14.6146
14.6409
14.7257
14.9352
15.2199
15.4916
15.8089
16.071
16.3827
16.6182
16.9204
17.1311
17.4274
17.6164
17.9129
18.0827
18.4079
14.7687
14.5866
14.466
14.3801
14.3677
14.3896
14.4394
14.5334
14.6185
14.7367
14.8309
14.9565
15.0478
15.1764
15.2613
15.3921
15.4704
15.6204
14.768
14.591
14.4349
14.2963
14.185
14.1044
14.0399
14.0066
13.9814
13.9785
13.9809
13.9917
14.0041
14.0296
14.0472
14.0796
14.1034
14.146
14.7666
14.594
14.432
14.282
14.143
14.0219
13.9115
13.8193
13.737
13.6698
13.6102
13.5633
13.5181
13.4872
13.4516
13.4342
13.4023
13.401
14.7659
14.5945
14.4322
14.2803
14.1361
14.0032
13.8782
13.7644
13.6582
13.5629
13.4735
13.3952
13.3198
13.2561
13.1915
13.1408
13.0838
13.0452
14.7657
14.5943
14.4321
14.2798
14.1353
13.9999
13.8715
13.7518
13.6385
13.5336
13.4341
13.343
13.2557
13.1771
13.1002
13.0328
12.9647
12.9074
14.7657
14.5941
14.432
14.2794
14.1349
13.9989
13.8699
13.7485
13.6331
13.5249
13.4219
13.3257
13.2338
13.1483
13.0663
12.9906
12.9172
12.8502
14.7657
14.5939
14.4318
14.279
14.1346
13.9983
13.8691
13.7472
13.6315
13.5223
13.4184
13.3203
13.227
13.1389
13.055
12.9759
12.9002
12.8291
14.7657
14.5938
14.4317
14.2787
14.1342
13.9977
13.8686
13.7464
13.6307
13.5211
13.4171
13.3185
13.2248
13.136
13.0516
12.9715
12.8952
12.8228
14.7657
14.5937
14.4316
14.2785
14.1339
13.9973
13.8681
13.7458
13.63
13.5202
13.4161
13.3174
13.2236
13.1346
13.05
12.9697
12.8932
12.8205
14.7657
14.5937
14.4315
14.2783
14.1337
13.997
13.8677
13.7453
13.6294
13.5195
13.4154
13.3165
13.2227
13.1336
13.0489
12.9684
12.8919
12.819
14.7657
14.5937
14.4314
14.2782
14.1335
13.9968
13.8674
13.745
13.629
13.5191
13.4148
13.3159
13.222
13.1329
13.0481
12.9676
12.8909
12.818
14.7657
14.5937
14.4314
14.2782
14.1335
13.9967
13.8673
13.7448
13.6288
13.5189
13.4146
13.3157
13.2217
13.1325
13.0477
12.9671
12.8904
12.8175
14.7657
14.5937
14.4314
14.2782
14.1336
13.9968
13.8674
13.745
13.629
13.5191
13.4148
13.3159
13.222
13.1327
13.048
12.9674
12.8907
12.8177
14.7657
14.5937
14.4315
14.2784
14.1338
13.997
13.8677
13.7453
13.6294
13.5196
13.4155
13.3166
13.2229
13.1339
13.0494
12.969
12.8927
12.82
14.7657
14.5937
14.4316
14.2785
14.1341
13.9974
13.8685
13.7464
13.6312
13.522
13.419
13.3214
13.2293
13.1418
13.0595
12.981
12.9074
12.8368
14.7659
14.5937
14.4318
14.2788
14.1353
14.0002
13.8742
13.756
13.6463
13.5435
13.4485
13.3592
13.277
13.1992
13.1282
13.0601
12.9988
12.9387
14.7661
14.5928
14.4329
14.2844
14.1515
14.0321
13.9289
13.8375
13.7593
13.6894
13.6307
13.5769
13.5328
13.4905
13.4574
13.423
13.3989
13.3693
14.7641
14.5936
14.461
14.3603
14.3029
14.2767
14.2796
14.294
14.3202
14.3529
14.3959
14.4345
14.4824
14.5217
14.572
14.6089
14.6616
14.6938
14.757
14.6921
14.7579
14.9172
15.1828
15.4611
15.7475
16.012
16.2723
16.5038
16.736
16.9386
17.1507
17.3309
17.5309
17.6936
17.8888
18.0359
14.9575
15.4344
16.5693
17.6884
18.7053
19.5677
20.3372
20.9968
21.6194
22.166
22.7188
23.2107
23.7398
24.2042
24.7326
25.1825
25.7249
26.1658
16.2579
20.9389
25.015
27.7587
29.7844
31.3585
32.7766
34.0583
35.3592
36.6161
37.9752
39.297
40.7613
42.1455
43.7175
45.1733
46.8833
48.3579
29.9428
47.225
54.8705
58.6734
61.6138
64.4319
67.5793
70.9787
74.7377
78.7136
82.9847
87.3437
91.9044
96.4493
101.099
105.621
110.174
114.575
165.79
160.073
154.899
149.564
144.479
139.678
135.613
132.11
129.27
126.973
125.319
124.044
123.339
122.829
122.825
122.982
123.269
123.826
0.46196
0.489513
0.869852
1.23049
1.61257
2.01907
2.45342
2.91253
3.38938
3.87402
4.3578
4.83262
5.29311
5.73442
6.15356
6.54699
6.91178
7.24341
7.53681
7.78469
7.979
8.11058
8.1694
8.15428
8.04565
7.90447
7.78284
8.03289
8.34425
8.60311
8.88006
9.03285
8.80289
9.20784
39.7329
39.9556
40.457
44.815
47.3698
51.0637
54.4903
58.2965
62.1783
66.2736
70.5214
74.9552
79.5611
84.355
89.3301
94.5008
99.8602
105.423
111.183
117.153
123.327
129.72
136.321
143.148
150.188
157.458
164.944
172.664
180.602
188.774
197.164
205.789
214.627
223.697
232.975
242.48
252.185
262.107
272.22
282.538
293.034
303.719
314.565
325.582
336.74
348.048
359.473
371.021
382.659
394.387
406.169
418.002
429.845
441.688
453.491
465.233
476.876
488.394
499.774
511.045
522.302
533.363
544.281
555.011
565.542
575.849
585.91
595.7
605.197
614.379
623.222
631.703
639.802
647.495
654.763
661.582
667.938
673.806
679.176
684.026
688.351
692.13
695.369
698.051
700.189
701.789
702.815
702.905
702.732
701.778
700.464
698.706
696.261
693.305
689.832
685.851
681.403
676.491
671.159
665.418
659.31
652.853
646.075
639.014
631.716
624.233
616.613
608.899
601.127
593.329
585.535
577.783
570.097
562.517
555.06
547.767
540.655
533.763
527.102
520.705
514.577
508.75
503.221
498.016
493.132
488.582
484.354
480.468
476.896
473.63
470.688
468.518
469.496
471.02
472.848
475.015
477.47
480.163
483.032
485.982
488.763
491.231
493.391
494.512
493.221
470.563
1.96715
1.16836
1.16718
1.31874
1.54918
1.83598
2.16939
2.53989
2.93745
3.35244
3.7768
4.20447
4.63139
5.0551
5.4743
5.88822
6.29616
6.69701
7.08883
7.46854
7.83184
8.18298
8.54955
8.95391
9.42334
10.0024
10.6958
11.4903
12.3714
13.4291
14.8149
16.6864
18.4324
21.6222
24.6953
25.6336
27.1447
28.9068
30.5489
32.3422
34.1602
36.0639
38.0237
40.0552
42.1536
44.3236
46.5652
48.8812
51.2719
53.7397
56.2848
58.9095
61.6136
64.3994
67.2664
70.2165
73.2491
76.3658
79.5657
82.8501
86.2177
89.6696
93.2041
96.8219
100.521
104.301
108.161
112.099
116.114
120.203
124.365
128.598
132.897
137.262
141.687
146.172
150.709
155.298
159.931
164.607
169.317
174.058
178.822
183.604
188.394
193.187
197.972
202.743
207.489
212.205
216.884
221.527
226.146
230.768
235.454
240.096
244.676
249.186
253.619
257.965
262.215
266.362
270.396
274.308
278.089
281.732
285.227
288.565
291.738
294.738
297.558
300.189
302.624
304.859
306.885
308.7
310.298
311.675
312.827
313.75
314.427
314.837
315.035
314.985
314.753
314.314
313.614
312.691
311.55
310.199
308.649
306.904
304.977
302.877
300.616
298.203
295.653
292.978
290.198
287.331
284.394
281.403
278.374
275.32
272.256
269.194
266.15
263.136
260.164
257.249
254.402
251.635
248.959
246.384
243.919
241.573
239.353
237.265
235.316
233.508
231.845
230.331
228.967
227.753
226.711
225.973
225.992
226.201
226.556
227.069
227.683
228.403
229.201
230.026
230.788
231.468
232.051
232.729
232.98
232.211
3.89897
1.9689
1.7449
1.79447
1.95557
2.19017
2.48136
2.81771
3.18898
3.58591
4.00077
4.42791
4.86388
5.30714
5.75774
6.21679
6.68617
7.1683
7.66622
8.18427
8.72971
9.30901
9.92016
10.5728
11.2824
12.0576
12.897
13.8026
14.7852
15.8761
17.1003
18.4321
19.8347
21.3704
22.7691
24.0062
25.3444
26.7425
28.1699
29.6573
31.1956
32.7896
34.4372
36.1405
37.8996
39.7159
41.5899
43.5226
45.5148
47.5674
49.6808
51.8559
54.0931
56.393
58.7561
61.1827
63.6731
66.2275
68.846
71.5285
74.2748
77.0849
79.9581
82.8941
85.8922
88.9517
92.0714
95.2504
98.4874
101.781
105.129
108.531
111.984
115.486
119.035
122.628
126.262
129.934
133.642
137.381
141.148
144.939
148.75
152.576
156.414
160.257
164.102
167.944
171.78
175.606
179.422
183.228
187.027
190.824
194.613
198.365
202.072
205.725
209.319
212.847
216.302
219.677
222.965
226.158
229.249
232.233
235.1
237.845
240.46
242.939
245.275
247.462
249.495
251.367
253.073
254.609
255.972
257.156
258.158
258.973
259.597
260.029
260.25
260.301
260.196
259.904
259.42
258.756
257.916
256.908
255.737
254.41
252.935
251.319
249.571
247.701
245.718
243.635
241.465
239.219
236.913
234.558
232.166
229.749
227.318
224.885
222.46
220.055
217.678
215.341
213.053
210.824
208.661
206.574
204.568
202.652
200.831
199.111
197.495
195.989
194.593
193.313
192.149
191.104
190.185
189.447
189.017
188.735
188.584
188.526
188.496
188.547
188.66
188.767
188.793
188.785
188.773
188.968
189.248
190.088
5.92369
2.82442
2.37736
2.34357
2.46166
2.66752
2.93656
3.25553
3.6147
4.0059
4.42236
4.85904
5.31273
5.78209
6.26729
6.76977
7.29182
7.83625
8.40607
9.00428
9.63359
10.2958
10.9918
11.7243
12.4964
13.3096
14.1652
15.0665
16.0203
17.0353
18.1145
19.2524
20.458
21.6797
22.9031
24.1403
25.4366
26.7813
28.165
29.5935
31.0701
32.5969
34.1745
35.8039
37.4859
39.2214
41.0113
42.8563
44.7572
46.7147
48.7296
50.8022
52.9332
55.1232
57.3726
59.6818
62.0511
64.481
66.9714
69.5227
72.1346
74.8073
77.5403
80.3335
83.1864
86.0983
89.0686
92.0964
95.1807
98.3203
101.514
104.76
108.057
111.402
114.795
118.232
121.711
125.23
128.785
132.374
135.993
139.64
143.31
147
150.705
154.424
158.15
161.882
165.616
169.349
173.079
176.803
180.52
184.227
187.912
191.562
195.17
198.73
202.235
205.677
209.052
212.35
215.566
218.692
221.722
224.649
227.464
230.163
232.737
235.181
237.487
239.649
241.662
243.52
245.218
246.752
248.116
249.306
250.32
251.153
251.803
252.27
252.532
252.62
252.554
252.302
251.869
251.262
250.485
249.543
248.442
247.189
245.789
244.252
242.584
240.797
238.898
236.899
234.812
232.649
230.422
228.142
225.821
223.47
221.1
218.722
216.347
213.984
211.643
209.333
207.064
204.844
202.681
200.583
198.555
196.606
194.739
192.961
191.275
189.684
188.191
186.798
185.505
184.312
183.223
182.261
181.471
180.8
180.23
179.724
179.265
178.837
178.438
178.025
177.582
177.131
176.705
176.474
176.501
177.167
7.87836
3.67431
3.00712
2.8958
2.97279
3.15374
3.4052
3.71096
4.06077
4.44693
4.86328
5.30512
5.76924
6.25395
6.75889
7.28481
7.83325
8.40617
9.00562
9.63344
10.291
10.979
11.698
12.4486
13.2318
14.0497
14.9046
15.7991
16.7363
17.7192
18.7481
19.82
20.945
22.1132
23.3181
24.5644
25.8529
27.1846
28.5621
29.9877
31.462
32.986
34.5608
36.1875
37.867
39.6003
41.3883
43.2322
45.1329
47.0915
49.1087
51.1849
53.321
55.5175
57.7752
60.0947
62.4767
64.9215
67.4297
70.0016
72.6374
75.3372
78.1012
80.9293
83.8211
86.7765
89.7949
92.8757
96.018
99.2209
102.483
105.804
109.181
112.613
116.097
119.633
123.217
126.847
130.52
134.233
137.983
141.767
145.581
149.422
153.286
157.168
161.067
164.976
168.893
172.814
176.734
180.648
184.552
188.437
192.296
196.121
199.905
203.64
207.319
210.936
214.483
217.953
221.338
224.632
227.826
230.913
233.887
236.739
239.462
242.049
244.495
246.79
248.931
250.91
252.722
254.361
255.824
257.106
258.202
259.11
259.828
260.356
260.673
260.796
260.755
260.52
260.098
259.493
258.709
257.751
256.625
255.338
253.896
252.307
250.579
248.722
246.746
244.662
242.481
240.214
237.875
235.475
233.025
230.537
228.023
225.493
222.958
220.428
217.914
215.424
212.967
210.553
208.188
205.881
203.637
201.464
199.367
197.349
195.416
193.569
191.811
190.143
188.565
187.076
185.678
184.379
183.196
182.11
181.106
180.161
179.267
178.4
177.554
176.709
175.858
175.02
174.235
173.637
173.292
173.512
9.70356
4.4841
3.60603
3.42003
3.45693
3.6136
3.84779
4.13994
4.47875
4.85644
5.26717
5.70644
6.17102
6.65889
7.16915
7.70185
8.25776
8.83812
9.44437
10.0779
10.74
11.4315
12.1533
12.9064
13.6922
14.5124
15.3694
16.2657
17.2033
18.1843
19.2096
20.2796
21.3959
22.5571
23.7624
25.0129
26.3092
27.6524
29.0436
30.4842
31.9752
33.518
35.1136
36.7633
38.4683
40.2297
42.0488
43.9267
45.8643
47.8627
49.923
52.0466
54.2346
56.4881
58.8081
61.1956
63.6515
66.1766
68.7717
71.4375
74.1745
76.9832
79.8639
82.8169
85.8422
88.9397
92.1092
95.3502
98.6621
102.044
105.495
109.014
112.598
116.248
119.96
123.732
127.562
131.448
135.386
139.372
143.405
147.479
151.592
155.739
159.917
164.119
168.343
172.584
176.835
181.093
185.351
189.604
193.842
198.061
202.252
206.406
210.518
214.579
218.581
222.516
226.378
230.157
233.845
237.436
240.919
244.288
247.534
250.649
253.626
256.456
259.133
261.648
263.996
266.169
268.161
269.967
271.581
272.999
274.217
275.231
276.039
276.64
277.02
277.179
277.157
276.926
276.492
275.858
275.03
274.012
272.81
271.431
269.881
268.169
266.304
264.295
262.153
259.889
257.515
255.044
252.486
249.856
247.164
244.424
241.648
238.846
236.031
233.213
230.402
227.608
224.84
222.108
219.419
216.78
214.2
211.682
209.235
206.86
204.563
202.347
200.212
198.162
196.195
194.31
192.509
190.794
189.169
187.629
186.161
184.753
183.393
182.069
180.771
179.489
178.225
176.998
175.845
174.879
174.14
173.817
11.3535
5.22878
4.15346
3.89516
3.89283
4.02444
4.24026
4.5171
4.8423
5.20779
5.60778
6.03797
6.49522
6.97742
7.4834
8.01282
8.56605
9.14394
9.74764
10.3785
11.0378
11.7268
12.447
13.1996
13.9862
14.8087
15.669
16.5691
17.5109
18.4958
19.525
20.5993
21.7194
22.886
24.0995
25.3608
26.6709
28.031
29.4421
30.9056
32.4227
33.9948
35.6234
37.3098
39.0556
40.8622
42.731
44.6636
46.6614
48.7259
50.8586
53.061
55.3347
57.6812
60.1018
62.598
65.1711
67.8222
70.5525
73.3631
76.255
79.2289
82.2854
85.4252
88.6486
91.9557
95.3464
98.8206
102.378
106.017
109.738
113.538
117.417
121.373
125.403
129.505
133.677
137.915
142.216
146.577
150.994
155.463
159.978
164.536
169.132
173.76
178.415
183.091
187.782
192.482
197.182
201.877
206.558
211.216
215.845
220.434
224.977
229.464
233.887
238.237
242.505
246.683
250.762
254.732
258.584
262.31
265.901
269.347
272.641
275.774
278.737
281.524
284.125
286.534
288.744
290.748
292.542
294.12
295.476
296.609
297.515
298.193
298.632
298.825
298.812
298.57
298.103
297.416
296.513
295.401
294.084
292.57
290.865
288.98
286.922
284.702
282.331
279.822
277.186
274.436
271.586
268.648
265.635
262.562
259.439
256.281
253.098
249.903
246.706
243.518
240.348
237.206
234.1
231.037
228.025
225.071
222.18
219.356
216.604
213.928
211.329
208.809
206.369
204.009
201.728
199.527
197.408
195.368
193.399
191.495
189.645
187.842
186.08
184.354
182.669
181.045
179.517
178.174
177.032
176.171
12.7957
5.8903
4.63521
4.30463
4.26609
4.37228
4.56859
4.82852
5.13803
5.48856
5.87436
6.29128
6.73637
7.20759
7.70378
8.22449
8.76991
9.34073
9.93799
10.563
11.217
11.9016
12.6183
13.3686
14.1542
14.977
15.8385
16.7407
17.6852
18.6733
19.7063
20.7854
21.9117
23.0861
24.3097
25.5838
26.9098
28.2891
29.7231
31.2134
32.7615
34.369
36.0377
37.7693
39.5656
41.4285
43.3598
45.3615
47.4353
49.5834
51.8075
54.1099
56.4923
58.9568
61.5051
64.1393
66.861
69.672
72.5738
75.568
78.6559
81.8387
85.1174
88.4929
91.9658
95.5366
99.2053
102.972
106.836
110.797
114.854
119.006
123.251
127.586
132.01
136.521
141.113
145.786
150.534
155.353
160.24
165.188
170.193
175.25
180.351
185.492
190.665
195.863
201.079
206.306
211.534
216.756
221.961
227.142
232.289
237.392
242.442
247.43
252.345
257.179
261.92
266.56
271.087
275.493
279.767
283.9
287.881
291.7
295.35
298.82
302.101
305.185
308.064
310.728
313.173
315.389
317.371
319.114
320.612
321.862
322.861
323.607
324.091
324.305
324.284
324.009
323.486
322.718
321.711
320.47
319.002
317.314
315.413
313.309
311.011
308.531
305.88
303.071
300.116
297.03
293.826
290.519
287.121
283.648
280.113
276.529
272.909
269.266
265.611
261.955
258.308
254.68
251.08
247.517
243.997
240.528
237.116
233.766
230.483
227.272
224.134
221.072
218.088
215.183
212.358
209.612
206.947
204.361
201.853
199.418
197.05
194.745
192.5
190.316
188.198
186.165
184.25
182.523
180.974
179.624
14.0105
6.4565
5.04207
4.64389
4.57023
4.65096
4.82707
5.0691
5.36168
5.69578
6.06556
6.46704
6.89747
7.35498
7.8385
8.34758
8.88239
9.44361
10.0323
10.6496
11.297
11.9755
12.6867
13.4325
14.2147
15.035
15.8951
16.7967
17.7415
18.731
19.7668
20.8501
21.9824
23.1651
24.3996
25.687
27.0298
28.43
29.8891
31.4091
32.9921
34.64
36.3549
38.1389
39.9944
41.9235
43.9286
46.0122
48.1766
50.4243
52.7578
55.1797
57.6924
60.2984
63.0001
65.8001
68.7005
71.7035
74.8114
78.0261
81.3493
84.7827
88.3278
91.9857
95.7573
99.6433
103.644
107.76
111.99
116.333
120.79
125.358
130.035
134.819
139.708
144.698
149.786
154.967
160.237
165.591
171.024
176.529
182.101
187.733
193.417
199.147
204.913
210.708
216.523
222.349
228.176
233.994
239.792
245.561
251.29
256.967
262.583
268.127
273.587
278.952
284.212
289.355
294.37
299.246
303.973
308.539
312.934
317.148
321.169
324.989
328.598
331.986
335.145
338.066
340.741
343.163
345.325
347.221
348.846
350.197
351.269
352.061
352.565
352.778
352.721
352.384
351.772
350.89
349.743
348.337
346.679
344.776
342.637
340.272
337.69
334.903
331.925
328.767
325.445
321.972
318.363
314.632
310.796
306.867
302.863
298.795
294.679
290.528
286.353
282.167
277.98
273.804
269.647
265.518
261.425
257.377
253.38
249.439
245.561
241.75
238.01
234.345
230.758
227.25
223.825
220.482
217.225
214.054
210.97
207.971
205.058
202.228
199.481
196.821
194.256
191.803
189.489
187.371
185.417
183.619
14.9891
6.92181
5.37128
4.91191
4.80479
4.86058
5.01636
5.24015
5.51538
5.83255
6.18573
6.57103
6.98586
7.42861
7.89833
8.39411
8.91645
9.46618
10.0444
10.6525
11.2924
11.9641
12.6693
13.4099
14.1874
15.0038
15.8608
16.7602
17.7038
18.6932
19.7304
20.8169
21.9546
23.1452
24.3906
25.6928
27.0553
28.4789
29.9662
31.5202
33.1433
34.8379
36.6067
38.4522
40.3772
42.3846
44.4771
46.6578
48.9297
51.296
53.7596
56.3237
58.9915
61.766
64.6503
67.6475
70.7603
73.9917
77.3442
80.8204
84.4224
88.1524
92.0121
96.0031
100.126
104.383
108.774
113.298
117.955
122.745
127.667
132.718
137.897
143.2
148.625
154.166
159.821
165.584
171.45
177.412
183.464
189.6
195.811
202.089
208.426
214.812
221.239
227.696
234.173
240.659
247.144
253.614
260.059
266.467
272.825
279.121
285.344
291.48
297.517
303.444
309.247
314.915
320.435
325.795
330.984
335.989
340.799
345.404
349.792
353.953
357.877
361.554
364.975
368.13
371.012
373.613
375.927
377.946
379.666
381.083
382.194
382.995
383.482
383.655
383.523
383.083
382.341
381.303
379.973
378.359
376.468
374.307
371.886
369.215
366.305
363.167
359.816
356.265
352.529
348.622
344.561
340.36
336.036
331.605
327.081
322.481
317.818
313.107
308.362
303.594
298.815
294.037
289.269
284.522
279.803
275.122
270.486
265.901
261.375
256.912
252.52
248.201
243.961
239.804
235.732
231.751
227.862
224.07
220.379
216.79
213.306
209.929
206.663
203.512
200.487
197.603
194.882
192.368
190.014
187.799
15.7334
7.286
5.62439
5.1116
4.97346
5.00551
5.14145
5.34723
5.60532
5.90577
6.24256
6.61178
7.01087
7.43871
7.8952
8.37941
8.8912
9.43106
9.99984
10.5986
11.2283
11.8901
12.5862
13.3185
14.0888
14.8991
15.7513
16.6475
17.5895
18.5795
19.6196
20.7119
21.8586
23.0619
24.3241
25.6465
27.0319
28.483
30.0046
31.5999
33.2719
35.0238
36.8585
38.7794
40.7897
42.8927
45.0921
47.3915
49.7947
52.3052
54.9271
57.664
60.5198
63.4983
66.6032
69.8382
73.2067
76.7122
80.3577
84.1463
88.0808
92.1634
96.3962
100.781
105.319
110.012
114.859
119.86
125.016
130.324
135.784
141.393
147.147
153.044
159.08
165.249
171.546
177.965
184.5
191.143
197.886
204.721
211.638
218.628
225.681
232.785
239.93
247.104
254.295
261.489
268.675
275.839
282.968
290.047
297.063
304.003
310.852
317.596
324.222
330.717
337.066
343.256
349.273
355.106
360.741
366.166
371.368
376.337
381.061
385.529
389.73
393.655
397.295
400.64
403.682
406.414
408.829
410.92
412.683
414.113
415.208
415.966
416.382
416.46
416.203
415.606
414.681
413.435
411.872
410
407.826
405.359
402.609
399.585
396.3
392.766
388.998
385.008
380.814
376.431
371.874
367.161
362.308
357.33
352.246
347.07
341.819
336.507
331.148
325.756
320.343
314.921
309.5
304.092
298.705
293.348
288.031
282.761
277.545
272.391
267.305
262.294
257.363
252.519
247.767
243.113
238.562
234.121
229.797
225.595
221.52
217.58
213.779
210.126
206.63
203.307
200.172
197.26
194.514
191.911
16.2549
7.55333
5.8062
5.2487
5.08274
5.09288
5.20998
5.39852
5.64017
5.92455
6.24607
6.60191
6.9883
7.40356
7.8464
8.31592
8.81336
9.33953
9.89539
10.482
11.1008
11.7537
12.442
13.1678
13.9329
14.7393
15.5894
16.4853
17.4294
18.4241
19.4719
20.5754
21.7371
22.96
24.2472
25.6007
27.0228
28.5159
30.0851
31.736
33.4727
35.2996
37.2209
39.2401
41.3609
43.5876
45.9243
48.3755
50.9457
53.6395
56.4613
59.4157
62.5072
65.7404
69.1196
72.6492
76.3331
80.1753
84.1794
88.3488
92.6865
97.195
101.877
106.733
111.765
116.975
122.361
127.923
133.661
139.572
145.655
151.906
158.32
164.894
171.623
178.5
185.518
192.67
199.947
207.342
214.843
222.441
230.126
237.884
245.705
253.576
261.482
269.412
277.35
285.283
293.195
301.072
308.898
316.658
324.336
331.916
339.385
346.725
353.923
360.962
367.829
374.509
380.988
387.252
393.287
399.081
404.622
409.897
414.895
419.606
424.019
428.124
431.912
435.375
438.504
441.292
443.734
445.822
447.553
448.923
449.93
450.571
450.847
450.761
450.308
449.487
448.316
446.799
444.944
442.755
440.243
437.416
434.284
430.858
427.15
423.173
418.942
414.472
409.778
404.878
399.787
394.523
389.102
383.543
377.862
372.077
366.202
360.255
354.25
348.201
342.12
336.022
329.917
323.816
317.729
311.667
305.639
299.653
293.718
287.843
282.036
276.304
270.656
265.099
259.642
254.292
249.058
243.949
238.974
234.143
229.465
224.949
220.604
216.44
212.467
208.699
205.149
201.844
198.717
195.752
16.5761
7.73427
5.92463
5.3312
5.14071
5.13193
5.2313
5.40398
5.63201
5.90364
6.21208
6.55247
6.92294
7.32265
7.7511
8.20853
8.69503
9.21121
9.75802
10.3367
10.9487
11.5959
12.28
13.0032
13.7677
14.5757
15.4298
16.3325
17.2868
18.2956
19.3626
20.4897
21.6798
22.9362
24.2614
25.6571
27.1297
28.685
30.3282
32.0639
33.8971
35.8327
37.8765
40.0329
42.3065
44.7024
47.2257
49.8818
52.676
55.6136
58.6999
61.9402
65.3398
68.9038
72.637
76.5444
80.6304
84.8992
89.3547
94.0003
98.839
103.873
109.105
114.536
120.167
125.997
132.026
138.254
144.677
151.292
158.097
165.087
172.257
179.599
187.108
194.776
202.594
210.553
218.643
226.853
235.171
243.585
252.082
260.649
269.272
277.935
286.624
295.323
304.015
312.686
321.318
329.895
338.398
346.813
355.12
363.304
371.347
379.233
386.946
394.47
401.789
408.887
415.751
422.366
428.717
434.793
440.581
446.069
451.245
456.1
460.624
464.807
468.642
472.119
475.233
477.975
480.342
482.327
483.928
485.141
485.965
486.399
486.445
486.112
485.371
484.25
482.759
480.9
478.683
476.112
473.199
469.952
466.383
462.501
458.32
453.854
449.116
444.123
438.89
433.435
427.775
421.927
415.909
409.738
403.433
397.01
390.487
383.88
377.204
370.475
363.706
356.91
350.099
343.285
336.479
329.692
322.934
316.214
309.543
302.93
296.384
289.916
283.535
277.252
271.075
265.017
259.088
253.301
247.667
242.2
236.912
231.815
226.923
222.246
217.796
213.586
209.624
205.933
202.44
199.142
16.6898
7.82855
5.9843
5.36581
5.15509
5.13118
5.21762
5.37763
5.59095
5.84727
6.14102
6.46882
6.82834
7.21819
7.63782
8.08728
8.567
9.07776
9.62064
10.197
10.8085
11.4572
12.1453
12.8753
13.6503
14.4722
15.3439
16.2684
17.249
18.2887
19.3893
20.5543
21.7894
23.0992
24.4891
25.9639
27.5288
29.1898
30.9524
32.8225
34.8059
36.909
39.1378
41.498
43.9956
46.637
49.4286
52.3767
55.4873
58.7667
62.2206
65.855
69.6755
73.6877
77.8966
82.3074
86.9243
91.7516
96.7928
102.051
107.528
113.227
119.147
125.29
131.655
138.24
145.045
152.065
159.297
166.736
174.377
182.214
190.239
198.445
206.821
215.359
224.048
232.876
241.831
250.9
260.07
269.326
278.652
288.035
297.457
306.902
316.352
325.791
335.201
344.563
353.861
363.074
372.186
381.177
390.03
398.725
407.247
415.576
423.696
431.59
439.243
446.639
453.762
460.598
467.134
473.358
479.256
484.819
490.035
494.895
499.39
503.513
507.256
510.612
513.575
516.14
518.302
520.058
521.405
522.341
522.866
522.983
522.703
521.997
520.88
519.37
517.471
515.189
512.533
509.508
506.126
502.398
498.332
493.941
489.238
484.235
478.949
473.394
467.587
461.546
455.288
448.829
442.189
435.385
428.435
421.357
414.169
406.887
399.528
392.106
384.636
377.132
369.606
362.071
354.537
347.017
339.522
332.062
324.648
317.292
310.004
302.796
295.679
288.665
281.768
275.001
268.377
261.912
255.621
249.52
243.625
237.953
232.518
227.335
222.416
217.772
213.409
209.348
205.509
201.911
16.6584
7.8453
5.99253
5.3617
5.13896
5.10323
5.17525
5.32151
5.52353
5.77065
6.05661
6.37771
6.73179
7.11767
7.53498
7.98394
8.46531
8.98054
9.53055
10.1168
10.7413
11.4064
12.1147
12.8685
13.6695
14.5206
15.4267
16.3922
17.4214
18.5189
19.69
20.9391
22.2715
23.6931
25.21
26.8288
28.5557
30.3976
32.3613
34.4538
36.6822
39.0539
41.5759
44.2554
47.1001
50.1178
53.3164
56.7034
60.2853
64.0683
68.0584
72.2614
76.6829
81.3278
86.2011
91.3067
96.6483
102.229
108.051
114.115
120.423
126.974
133.768
140.802
148.075
155.581
163.318
171.279
179.459
187.85
196.444
205.233
214.206
223.354
232.664
242.125
251.723
261.446
271.278
281.205
291.211
301.28
311.396
321.54
331.696
341.845
351.968
362.048
372.065
382.001
391.835
401.549
411.124
420.541
429.78
438.823
447.652
456.25
464.599
472.682
480.484
487.989
495.183
502.051
508.582
514.762
520.581
526.029
531.098
535.777
540.062
543.944
547.419
550.481
553.126
555.349
557.15
558.523
559.471
559.988
560.077
559.764
559.002
557.818
556.222
554.221
551.821
549.029
545.853
542.3
538.381
534.107
529.489
524.537
519.265
513.685
507.812
501.664
495.255
488.603
481.726
474.639
467.362
459.913
452.309
444.569
436.71
428.749
420.704
412.589
404.419
396.208
387.97
379.716
371.459
363.21
354.983
346.789
338.639
330.547
322.523
314.583
306.739
299.005
291.396
283.93
276.622
269.492
262.557
255.836
249.349
243.115
237.154
231.483
226.112
221.054
216.312
211.905
207.745
203.881
16.5449
7.82633
5.97269
5.33122
5.09532
5.04894
5.11385
5.25479
5.45295
5.69807
5.98444
6.30852
6.66802
7.06207
7.49055
7.9539
8.45285
8.9881
9.56003
10.1722
10.8278
11.53
12.2823
13.0888
13.9541
14.8823
15.8784
16.9477
18.096
19.3296
20.6551
22.0792
23.6089
25.2515
27.0149
28.9074
30.9372
33.1128
35.4424
37.9346
40.5973
43.4381
46.4649
49.6873
53.1144
56.7558
60.6222
64.7227
69.0615
73.6429
78.4715
83.5512
88.8858
94.4783
100.331
106.446
112.823
119.463
126.365
133.526
140.945
148.617
156.539
164.704
173.107
181.74
190.595
199.665
208.939
218.407
228.059
237.882
247.865
257.994
268.256
278.637
289.121
299.694
310.339
321.041
331.782
342.545
353.312
364.066
374.788
385.459
396.061
406.575
416.981
427.261
437.395
447.363
457.148
466.73
476.091
485.212
494.076
502.666
510.966
518.959
526.631
533.968
540.956
547.581
553.832
559.7
565.175
570.248
574.912
579.161
582.989
586.393
589.367
591.91
594.02
595.692
596.931
597.725
598.093
598.013
597.519
596.563
595.191
593.398
591.191
588.578
585.565
582.159
578.368
574.2
569.664
564.772
559.535
553.963
548.068
541.864
535.364
528.585
521.543
514.254
506.734
499
491.071
482.963
474.695
466.285
457.75
449.108
440.374
431.566
422.697
413.783
404.835
395.868
386.893
377.923
368.972
360.051
351.175
342.357
333.609
324.949
316.391
307.95
299.646
291.497
283.523
275.748
268.19
260.872
253.816
247.047
240.579
234.431
228.623
223.169
218.069
213.343
208.904
204.837
16.2793
7.75297
5.91553
5.27496
5.04051
4.99691
5.06684
5.21547
5.4239
5.6821
5.98421
6.32473
6.70387
7.12183
7.57936
8.07782
8.61919
9.2063
9.84214
10.53
11.274
12.0791
12.9504
13.894
14.9165
16.0244
17.2249
18.5257
19.9352
21.4621
23.1157
24.9055
26.8413
28.9334
31.1922
33.628
36.2514
39.0726
42.1017
45.3482
48.821
52.5287
56.4798
60.6828
65.1459
69.8772
74.8838
80.1771
85.7553
91.6177
97.7637
104.192
110.901
117.889
125.152
132.686
140.487
148.548
156.863
165.425
174.226
183.258
192.511
201.977
211.643
221.501
231.538
241.743
252.104
262.608
273.243
283.995
294.85
305.795
316.815
327.895
339.021
350.176
361.346
372.514
383.663
394.778
405.841
416.835
427.742
438.545
449.227
459.77
470.155
480.364
490.381
500.186
509.763
519.094
528.162
536.95
545.441
553.622
561.476
568.99
576.151
582.948
589.366
595.394
601.024
606.246
611.055
615.443
619.405
622.936
626.035
628.698
630.923
632.712
634.065
634.972
635.46
635.477
635.108
634.254
632.986
631.297
629.194
626.68
623.763
620.449
616.745
612.659
608.196
603.365
598.174
592.634
586.755
580.547
574.02
567.187
560.063
552.662
544.999
537.089
528.947
520.591
512.036
503.3
494.4
485.354
476.179
466.892
457.509
448.047
438.519
428.941
419.326
409.686
400.034
390.384
380.748
371.142
361.58
352.075
342.645
333.306
324.075
314.97
306.012
297.223
288.626
280.234
272.079
264.188
256.59
249.316
242.405
235.866
229.705
223.934
218.555
213.584
208.924
204.704
15.9758
7.63821
5.84071
5.22159
5.00529
4.9802
5.06981
5.23759
5.46868
5.75464
6.09106
6.47634
6.90995
7.39295
7.92756
8.51689
9.165
9.87683
10.6579
11.5142
12.4527
13.4814
14.609
15.8452
17.2002
18.6846
20.3101
22.0888
24.0334
26.157
28.4726
30.9935
33.7329
36.7041
39.9194
43.3906
47.1288
51.1442
55.4463
60.0423
64.9381
70.1388
75.6495
81.473
87.6108
94.0658
100.839
107.929
115.323
123.01
130.98
139.222
147.726
156.482
165.477
174.701
184.143
193.789
203.629
213.65
223.84
234.188
244.681
255.308
266.056
276.913
287.868
298.909
310.022
321.198
332.423
343.686
354.973
366.273
377.573
388.86
400.121
411.344
422.514
433.618
444.642
455.571
466.392
477.089
487.648
498.053
508.289
518.341
528.193
537.829
547.234
556.391
565.286
573.904
582.228
590.245