/*--------------------------------*- C++ -*----------------------------------*\
| =========                 |                                                 |
| \\      /  F ield         | OpenFOAM: The Open Source CFD Toolbox           |
|  \\    /   O peration     | Version:  5.0                                   |
|   \\  /    A nd           | Web:      www.OpenFOAM.org                      |
|    \\/     M anipulation  |                                                 |
\*---------------------------------------------------------------------------*/
FoamFile
{
    version     2.0;
    format      ascii;
    class       volScalarField;
    location    "200";
    object      k;
}
// * * * * * * * * * * * * * * * * * * * * * * * * * * * * * * * * * * * * * //

dimensions      [0 2 -2 0 0 0 0];

internalField   nonuniform List<scalar> 
12225
(
0.362813
0.343993
0.327744
0.30982
0.295399
0.283485
0.27551
0.270285
0.27034
0.271885
0.276063
0.280691
0.28992
0.295646
0.306937
0.31262
0.325387
0.32743
0.440186
0.468698
0.461605
0.44837
0.450349
0.458314
0.474539
0.49856
0.524394
0.55215
0.580758
0.606218
0.633884
0.65395
0.679932
0.693126
0.718652
0.724771
0.390541
0.417873
0.420231
0.416826
0.411628
0.407804
0.408018
0.410037
0.414557
0.421404
0.430732
0.439728
0.451202
0.461181
0.472905
0.483606
0.493692
0.506125
0.377546
0.386982
0.391406
0.391341
0.390222
0.387896
0.385662
0.384081
0.382882
0.382898
0.383358
0.384384
0.386285
0.388471
0.39093
0.394271
0.396592
0.401053
0.374561
0.37609
0.378411
0.378665
0.378263
0.377205
0.375488
0.373738
0.37201
0.370455
0.369256
0.36811
0.367382
0.366808
0.366447
0.366347
0.36637
0.366729
0.373814
0.37271
0.372645
0.372383
0.37176
0.370817
0.369553
0.368082
0.366571
0.364976
0.363528
0.362063
0.360755
0.359529
0.358397
0.357429
0.356444
0.355792
0.373782
0.371742
0.370386
0.369287
0.368233
0.367114
0.365915
0.364587
0.363238
0.361808
0.360422
0.359023
0.357677
0.356382
0.35512
0.353966
0.352794
0.351805
0.37382
0.37156
0.369634
0.367977
0.3665
0.365108
0.363775
0.362429
0.361107
0.359766
0.35845
0.357143
0.355863
0.354622
0.3534
0.352249
0.351098
0.350052
0.373832
0.371553
0.369449
0.367525
0.365776
0.364153
0.362645
0.361199
0.359817
0.358473
0.357169
0.355902
0.354667
0.353474
0.352307
0.351195
0.350096
0.349072
0.373831
0.37156
0.369418
0.367405
0.365529
0.363772
0.362133
0.360585
0.359122
0.357728
0.356394
0.355117
0.353888
0.35271
0.351569
0.350481
0.349419
0.34842
0.373829
0.37156
0.369413
0.367378
0.365458
0.363645
0.361937
0.360324
0.358798
0.357353
0.355979
0.354672
0.353424
0.352235
0.351094
0.350008
0.348958
0.347968
0.373828
0.371558
0.369409
0.36737
0.365439
0.363609
0.361875
0.360234
0.358677
0.357201
0.3558
0.354468
0.3532
0.351994
0.350842
0.349747
0.348695
0.3477
0.373827
0.371556
0.369405
0.367365
0.36543
0.363593
0.361851
0.360197
0.358626
0.357134
0.355715
0.354367
0.353084
0.351864
0.3507
0.349594
0.348535
0.347531
0.373827
0.371555
0.369401
0.367359
0.365422
0.363583
0.361837
0.360178
0.3586
0.357101
0.355674
0.354317
0.353024
0.351794
0.350622
0.349506
0.34844
0.347427
0.373826
0.371553
0.369398
0.367355
0.365416
0.363575
0.361826
0.360164
0.358584
0.357081
0.355651
0.354289
0.352993
0.351758
0.35058
0.349459
0.348388
0.347369
0.373826
0.371552
0.369396
0.367351
0.36541
0.363567
0.361817
0.360153
0.358572
0.357067
0.355634
0.354271
0.352972
0.351734
0.350554
0.34943
0.348357
0.347334
0.373825
0.371551
0.369394
0.367348
0.365406
0.363562
0.36181
0.360145
0.358562
0.357055
0.355621
0.354256
0.352955
0.351716
0.350535
0.349408
0.348334
0.347309
0.373825
0.371551
0.369393
0.367346
0.365403
0.363558
0.361805
0.360139
0.358555
0.357047
0.355612
0.354246
0.352944
0.351703
0.350521
0.349393
0.348317
0.347291
0.373825
0.37155
0.369393
0.367346
0.365402
0.363557
0.361804
0.360137
0.358552
0.357044
0.355608
0.354241
0.352938
0.351697
0.350514
0.349385
0.348308
0.347281
0.373825
0.371551
0.369393
0.367347
0.365404
0.363559
0.361806
0.36014
0.358555
0.357047
0.355611
0.354244
0.352942
0.351701
0.350517
0.349389
0.348313
0.347285
0.373825
0.371551
0.369395
0.367349
0.365407
0.363563
0.361811
0.360146
0.358562
0.357055
0.355621
0.354256
0.352955
0.351716
0.350534
0.349408
0.348333
0.347308
0.373826
0.371552
0.369397
0.367352
0.365412
0.363571
0.361822
0.360161
0.358583
0.357083
0.355657
0.354299
0.353007
0.351775
0.350603
0.349484
0.348418
0.347399
0.373826
0.371554
0.369399
0.367359
0.365429
0.363603
0.361875
0.36024
0.358691
0.35722
0.355823
0.354494
0.353227
0.352019
0.350866
0.349763
0.348711
0.347701
0.373828
0.371551
0.369412
0.367417
0.365556
0.363819
0.362189
0.360651
0.359189
0.357794
0.356456
0.355172
0.353936
0.352746
0.351601
0.350496
0.349437
0.34841
0.373823
0.371554
0.369604
0.367893
0.366339
0.364892
0.363495
0.362122
0.360761
0.359414
0.358081
0.35677
0.355489
0.354238
0.353029
0.351856
0.350734
0.349646
0.373788
0.371991
0.371113
0.370266
0.36936
0.368311
0.367048
0.36563
0.364121
0.362575
0.36103
0.359522
0.358073
0.356682
0.355382
0.354142
0.35301
0.351924
0.374355
0.375572
0.377775
0.377858
0.377288
0.375886
0.373835
0.371641
0.369505
0.367482
0.365664
0.364084
0.36271
0.361535
0.36061
0.359818
0.359289
0.3588
0.379125
0.394296
0.398249
0.396573
0.392538
0.387603
0.383646
0.380448
0.378268
0.376852
0.376496
0.37674
0.377414
0.378689
0.38044
0.38242
0.384825
0.387135
0.408394
0.42754
0.422416
0.411055
0.402226
0.397923
0.398625
0.400962
0.406068
0.413052
0.420997
0.429825
0.438832
0.448185
0.457301
0.466545
0.475314
0.484173
0.36605
0.353416
0.341988
0.33021
0.318982
0.308381
0.299411
0.29167
0.285404
0.280333
0.276682
0.273866
0.272311
0.271173
0.27121
0.271472
0.272188
0.273388
0.00158017
0.00765819
0.0136193
0.0192564
0.0252168
0.0315621
0.0383446
0.0455267
0.0529931
0.0605955
0.0681887
0.0756496
0.0828799
0.089803
0.0963552
0.102482
0.108133
0.113265
0.117846
0.121871
0.125367
0.128253
0.130377
0.133445
0.136068
0.138837
0.141367
0.14596
0.148091
0.14868
0.147298
0.145275
0.140669
0.136685
0.130049
0.142098
0.146428
0.155345
0.161577
0.169714
0.177217
0.185315
0.193393
0.201733
0.210196
0.218844
0.227645
0.236618
0.245749
0.255051
0.264512
0.274144
0.283936
0.293899
0.304021
0.314314
0.324762
0.335379
0.346148
0.357081
0.368159
0.379397
0.390772
0.402298
0.413952
0.425746
0.437657
0.449696
0.461838
0.474094
0.486437
0.498878
0.511388
0.523978
0.536617
0.549315
0.562041
0.574803
0.587571
0.600351
0.61311
0.625853
0.638548
0.651194
0.663759
0.676237
0.688595
0.700821
0.712881
0.724757
0.736415
0.747833
0.759002
0.769947
0.78076
0.791317
0.801633
0.811682
0.821458
0.830942
0.840119
0.848973
0.857486
0.865644
0.873432
0.880834
0.887835
0.894421
0.900577
0.906289
0.911546
0.916334
0.920644
0.924463
0.927788
0.930606
0.932919
0.934719
0.936018
0.936829
0.937073
0.93658
0.935765
0.934243
0.932362
0.930118
0.927275
0.923919
0.920092
0.915793
0.911049
0.905869
0.900281
0.894297
0.887947
0.881245
0.874208
0.866883
0.859307
0.851518
0.843556
0.835455
0.827252
0.818973
0.810652
0.802318
0.794006
0.785742
0.77756
0.769483
0.761545
0.753767
0.746177
0.738796
0.731653
0.724762
0.718146
0.711818
0.705796
0.70008
0.69469
0.689629
0.684895
0.680499
0.676679
0.675526
0.67564
0.675685
0.676144
0.676962
0.678138
0.679554
0.68118
0.682967
0.684807
0.68651
0.687672
0.687999
0.686244
0.665409
0.00676334
0.0224827
0.0326239
0.0404704
0.0476052
0.0547312
0.062114
0.0698076
0.0777496
0.0858282
0.0939235
0.101931
0.109767
0.117371
0.124694
0.131702
0.138363
0.144656
0.150571
0.156126
0.161378
0.166446
0.171551
0.177045
0.183161
0.190151
0.197678
0.204487
0.210314
0.215784
0.221381
0.228651
0.239005
0.247651
0.258519
0.273074
0.286834
0.299311
0.311537
0.324557
0.337894
0.351592
0.365597
0.379926
0.394563
0.409515
0.424776
0.440352
0.456241
0.472448
0.488975
0.505824
0.522996
0.540496
0.558323
0.576481
0.594967
0.613785
0.632932
0.652409
0.672212
0.69234
0.712789
0.733557
0.754637
0.776024
0.797711
0.819692
0.841956
0.864498
0.887303
0.910365
0.933668
0.957202
0.98095
1.0049
1.02903
1.05334
1.07779
1.10238
1.12708
1.15187
1.17673
1.20164
1.22656
1.25148
1.27636
1.30117
1.32587
1.35043
1.37479
1.3989
1.4227
1.44611
1.46904
1.49164
1.51393
1.53587
1.55744
1.57861
1.59934
1.6196
1.63935
1.65857
1.67721
1.69525
1.71264
1.72936
1.74537
1.76063
1.77512
1.7888
1.80164
1.81361
1.82469
1.83485
1.84408
1.85234
1.85962
1.86591
1.87119
1.87546
1.8787
1.88059
1.8815
1.88182
1.8811
1.87922
1.87633
1.87247
1.86766
1.86192
1.8553
1.84783
1.83956
1.83051
1.82076
1.81035
1.79934
1.7878
1.77581
1.76343
1.75073
1.73777
1.72462
1.71134
1.698
1.68466
1.67139
1.65824
1.64528
1.63256
1.62014
1.60808
1.59643
1.58523
1.57455
1.5644
1.55483
1.54587
1.53755
1.52988
1.52288
1.51655
1.51095
1.50641
1.50258
1.49948
1.49703
1.49513
1.4937
1.49255
1.49154
1.49052
1.48928
1.4876
1.4851
1.48182
1.47498
1.45102
0.0134322
0.0365231
0.0494752
0.0592494
0.0679409
0.0763079
0.084688
0.0932121
0.101893
0.11068
0.119501
0.128285
0.136976
0.145533
0.153933
0.162166
0.170234
0.17815
0.18595
0.193696
0.201494
0.209506
0.217939
0.226992
0.236778
0.247231
0.25801
0.268858
0.279746
0.290988
0.303054
0.316051
0.330078
0.344445
0.359666
0.375659
0.39181
0.408092
0.424608
0.441542
0.458877
0.476609
0.494728
0.513231
0.532118
0.551389
0.571045
0.591086
0.611516
0.632335
0.653545
0.675149
0.697148
0.719543
0.742334
0.765523
0.789107
0.813087
0.837461
0.862225
0.887376
0.91291
0.938822
0.965107
0.991756
1.01876
1.04612
1.07381
1.10183
1.13017
1.15881
1.18773
1.21694
1.2464
1.27609
1.30602
1.33614
1.36644
1.39691
1.42751
1.45823
1.48904
1.5199
1.55081
1.58171
1.6126
1.64342
1.67415
1.70476
1.7352
1.76545
1.79545
1.82519
1.85462
1.88372
1.91248
1.94085
1.96881
1.9963
2.0233
2.04975
2.07561
2.10085
2.12542
2.14927
2.17236
2.19464
2.21608
2.23663
2.25624
2.27488
2.2925
2.30907
2.32454
2.33888
2.35207
2.36406
2.37483
2.38437
2.39264
2.39963
2.40532
2.40974
2.41273
2.41426
2.41478
2.41412
2.41206
2.40873
2.40415
2.39837
2.39141
2.38333
2.37416
2.36397
2.3528
2.34072
2.3278
2.31411
2.29973
2.28475
2.26925
2.25332
2.23704
2.22048
2.20374
2.18688
2.16999
2.15315
2.13643
2.11991
2.10366
2.08776
2.07226
2.05723
2.04274
2.02884
2.01558
2.003
1.99114
1.98003
1.9697
1.96016
1.95141
1.94346
1.93637
1.93003
1.92447
1.91954
1.91515
1.91118
1.90746
1.90381
1.90006
1.89606
1.89164
1.88662
1.88118
1.87335
1.85512
0.0204293
0.0493618
0.0649397
0.0764145
0.0863695
0.0957292
0.104919
0.114138
0.123459
0.132887
0.142389
0.151925
0.16146
0.170973
0.180455
0.189915
0.199373
0.208865
0.218446
0.228188
0.238189
0.248569
0.259453
0.270949
0.283103
0.295872
0.309132
0.322781
0.336817
0.351359
0.366546
0.382429
0.399022
0.416208
0.433967
0.452243
0.470922
0.48995
0.509331
0.529113
0.549313
0.569939
0.590993
0.612477
0.634393
0.656744
0.679531
0.702759
0.726428
0.750542
0.775103
0.800113
0.825575
0.851489
0.877856
0.904676
0.93195
0.959675
0.98785
1.01647
1.04554
1.07504
1.10497
1.13533
1.16611
1.1973
1.22889
1.26086
1.29322
1.32593
1.35899
1.39238
1.42609
1.46009
1.49437
1.52891
1.56367
1.59865
1.63381
1.66914
1.70459
1.74015
1.77578
1.81146
1.84715
1.88281
1.91843
1.95395
1.98935
2.02458
2.05963
2.09443
2.12897
2.16319
2.19706
2.23055
2.2636
2.29617
2.32821
2.35968
2.39053
2.4207
2.45016
2.47884
2.5067
2.53369
2.55975
2.58484
2.60891
2.6319
2.65377
2.67447
2.69395
2.71218
2.7291
2.74468
2.75889
2.7717
2.78306
2.79296
2.80138
2.80831
2.81374
2.81764
2.81984
2.82064
2.82011
2.81803
2.81445
2.80943
2.80299
2.79518
2.78604
2.77564
2.76401
2.75124
2.73739
2.72254
2.70677
2.69016
2.67282
2.65484
2.63631
2.61733
2.59798
2.57837
2.55858
2.5387
2.51882
2.49903
2.47942
2.46006
2.44103
2.42242
2.4043
2.38672
2.36977
2.35349
2.33793
2.32313
2.30914
2.29596
2.28361
2.2721
2.26139
2.25151
2.24239
2.23401
2.22625
2.219
2.21215
2.20554
2.19899
2.19237
2.18555
2.17845
2.17104
2.16363
2.15484
2.13971
0.0271871
0.0611286
0.0791171
0.0921885
0.103324
0.113594
0.123513
0.133345
0.143219
0.15319
0.163267
0.173443
0.183705
0.194047
0.204473
0.215002
0.225663
0.236497
0.24756
0.258916
0.270642
0.282821
0.295531
0.308836
0.322759
0.337286
0.352376
0.367989
0.38412
0.400801
0.418081
0.435988
0.454518
0.473632
0.493297
0.513476
0.534128
0.555219
0.576742
0.598709
0.621133
0.644022
0.667382
0.691217
0.715532
0.74033
0.765617
0.791395
0.81767
0.844444
0.871721
0.899505
0.927797
0.9566
0.985915
1.01574
1.04608
1.07694
1.1083
1.14018
1.17255
1.20543
1.23881
1.27267
1.307
1.34181
1.37708
1.4128
1.44895
1.48551
1.52249
1.55984
1.59756
1.63563
1.67402
1.71271
1.75167
1.79088
1.83032
1.86994
1.90973
1.94964
1.98966
2.02974
2.06984
2.10994
2.14999
2.18996
2.22981
2.2695
2.30898
2.34822
2.38718
2.42579
2.46402
2.50182
2.53913
2.57592
2.61211
2.64768
2.68255
2.71667
2.74999
2.78246
2.81401
2.84459
2.87414
2.90262
2.92995
2.95609
2.98098
3.00457
3.02681
3.04765
3.06703
3.08493
3.10129
3.11607
3.12925
3.14079
3.15068
3.15888
3.16541
3.17025
3.17326
3.17451
3.17428
3.17232
3.16868
3.1634
3.15652
3.14807
3.13811
3.12669
3.11387
3.09973
3.08435
3.06779
3.05016
3.03155
3.01205
2.99178
2.97083
2.9493
2.9273
2.90493
2.8823
2.85949
2.83661
2.81376
2.79102
2.7685
2.74627
2.72442
2.70303
2.68217
2.66192
2.64234
2.62347
2.60537
2.58807
2.5716
2.55596
2.54116
2.52718
2.514
2.50159
2.4899
2.47883
2.46828
2.45814
2.44828
2.43855
2.42884
2.41907
2.40923
2.39939
2.38994
2.37981
2.36564
0.0334993
0.0716809
0.0918319
0.106377
0.118616
0.129743
0.140346
0.150741
0.161108
0.171543
0.182096
0.192789
0.203634
0.214641
0.225826
0.237213
0.248835
0.260732
0.272954
0.285554
0.298591
0.312123
0.3262
0.340864
0.356135
0.372016
0.388496
0.40556
0.423201
0.441426
0.460246
0.479667
0.499684
0.520281
0.541437
0.563134
0.585352
0.608073
0.631293
0.655012
0.679237
0.703974
0.72923
0.75501
0.781321
0.808168
0.835557
0.863493
0.891983
0.921031
0.950642
0.980821
1.01157
1.0429
1.0748
1.10728
1.14034
1.17398
1.20821
1.24301
1.27838
1.31433
1.35084
1.38792
1.42554
1.4637
1.50239
1.5416
1.58131
1.6215
1.66216
1.70328
1.74481
1.78675
1.82908
1.87175
1.91475
1.95805
2.00161
2.0454
2.08939
2.13354
2.17782
2.22219
2.26661
2.31103
2.35543
2.39974
2.44394
2.48797
2.53179
2.57534
2.61858
2.66145
2.70391
2.74589
2.78734
2.82821
2.86844
2.90797
2.94675
2.9847
3.02179
3.05793
3.09308
3.12716
3.16013
3.19191
3.22245
3.25169
3.27956
3.30601
3.33099
3.35443
3.37629
3.39651
3.41504
3.43186
3.4469
3.46015
3.47158
3.48116
3.48888
3.49474
3.49866
3.50053
3.50073
3.49904
3.49548
3.49009
3.4829
3.47395
3.4633
3.45101
3.43713
3.42175
3.40493
3.38678
3.36738
3.34683
3.32524
3.30271
3.27936
3.25529
3.23062
3.20545
3.17991
3.15408
3.12808
3.10201
3.07598
3.05008
3.02441
2.99905
2.97409
2.94962
2.92571
2.90242
2.87981
2.85795
2.83686
2.81658
2.79712
2.7785
2.7607
2.7437
2.72748
2.71198
2.69713
2.68286
2.66906
2.65562
2.64245
2.62945
2.61659
2.60392
2.59157
2.57993
2.56812
2.55363
0.0392068
0.080913
0.102945
0.118801
0.132042
0.143959
0.155196
0.166111
0.176922
0.187761
0.198709
0.209818
0.221121
0.232646
0.244418
0.256467
0.268828
0.281539
0.294643
0.308184
0.322206
0.336753
0.35186
0.367556
0.38386
0.400781
0.418317
0.436464
0.455218
0.474577
0.494542
0.515111
0.53628
0.558042
0.580386
0.603304
0.626787
0.650827
0.67542
0.700569
0.726276
0.752548
0.779391
0.806812
0.834819
0.86342
0.892621
0.92243
0.952855
0.983902
1.01558
1.04789
1.08084
1.11444
1.14869
1.18359
1.21914
1.25536
1.29223
1.32977
1.36795
1.40679
1.44628
1.4864
1.52715
1.56853
1.61051
1.65309
1.69625
1.73997
1.78424
1.82902
1.8743
1.92005
1.96625
2.01285
2.05985
2.10719
2.15484
2.20278
2.25095
2.29932
2.34785
2.39649
2.4452
2.49394
2.54265
2.5913
2.63982
2.68816
2.73628
2.78412
2.83161
2.8787
2.92534
2.97146
3.017
3.06191
3.10612
3.14958
3.19221
3.23395
3.27474
3.31452
3.35322
3.39077
3.4271
3.46216
3.49588
3.52819
3.55902
3.58832
3.61603
3.64208
3.66642
3.68898
3.70973
3.72861
3.74557
3.76059
3.77362
3.78464
3.79364
3.80059
3.80548
3.80815
3.80887
3.80754
3.80418
3.79878
3.79138
3.78204
3.7708
3.75772
3.74286
3.7263
3.70812
3.68842
3.66729
3.64483
3.62115
3.59636
3.57058
3.54393
3.51652
3.48847
3.45989
3.4309
3.40162
3.37215
3.34261
3.31309
3.2837
3.25453
3.22567
3.19723
3.16926
3.14186
3.11508
3.08899
3.06363
3.03906
3.01529
2.99234
2.97021
2.9489
2.92839
2.90864
2.88961
2.87123
2.85344
2.83615
2.81931
2.80285
2.78677
2.77118
2.75623
2.74228
2.72851
2.71301
0.0441965
0.0887634
0.112377
0.129355
0.143467
0.156087
0.167896
0.179285
0.190495
0.201689
0.212971
0.224418
0.236082
0.248005
0.260223
0.272772
0.285687
0.299005
0.312762
0.326997
0.341744
0.357037
0.372903
0.389364
0.406436
0.424129
0.442447
0.461391
0.48096
0.501152
0.521967
0.543402
0.565456
0.588126
0.611409
0.6353
0.659799
0.684904
0.710614
0.736934
0.763868
0.791422
0.819605
0.848425
0.877891
0.908013
0.9388
0.970261
1.00241
1.03524
1.06878
1.10303
1.138
1.17369
1.21012
1.24728
1.28518
1.32382
1.36321
1.40335
1.44423
1.48585
1.52821
1.5713
1.61511
1.65962
1.70484
1.75074
1.7973
1.84451
1.89234
1.94078
1.98978
2.03933
2.0894
2.13994
2.19093
2.24232
2.29408
2.34617
2.39853
2.45113
2.50393
2.55686
2.60987
2.66293
2.71597
2.76894
2.82177
2.87443
2.92683
2.97892
3.03064
3.08193
3.13271
3.18294
3.23253
3.28143
3.32958
3.3769
3.42332
3.46879
3.51323
3.55657
3.59875
3.63969
3.67933
3.7176
3.75443
3.78975
3.82349
3.8556
3.88599
3.91461
3.9414
3.9663
3.98924
4.01018
4.02907
4.04586
4.06052
4.07302
4.08333
4.09143
4.0973
4.10085
4.10218
4.1013
4.0982
4.09287
4.08535
4.07568
4.06392
4.05011
4.03434
4.01667
3.99718
3.97597
3.95313
3.92877
3.90301
3.87595
3.84771
3.81842
3.7882
3.75718
3.72546
3.69319
3.66047
3.62742
3.59415
3.56078
3.52741
3.49415
3.46109
3.42834
3.39597
3.36408
3.33274
3.30201
3.27198
3.24267
3.21415
3.18644
3.15955
3.13351
3.1083
3.08392
3.06036
3.03756
3.01551
2.99415
2.97345
2.95339
2.93402
2.91543
2.89781
2.88146
2.86559
2.84871
0.0483994
0.0952183
0.120113
0.138011
0.152854
0.166075
0.178383
0.190189
0.201754
0.213258
0.224825
0.236549
0.248498
0.260725
0.273276
0.286191
0.299508
0.31326
0.327483
0.342208
0.357466
0.373283
0.389682
0.406681
0.424295
0.442534
0.461405
0.480913
0.50106
0.521847
0.543276
0.565347
0.588063
0.611422
0.635428
0.660082
0.685386
0.711342
0.737957
0.765235
0.793185
0.821815
0.851134
0.881155
0.911888
0.943344
0.975536
1.00848
1.04217
1.07664
1.1119
1.14794
1.18479
1.22245
1.26093
1.30023
1.34037
1.38135
1.42318
1.46584
1.50934
1.55369
1.59887
1.64488
1.6917
1.73934
1.78777
1.83697
1.88693
1.93763
1.98903
2.04112
2.09387
2.14723
2.20118
2.25568
2.31068
2.36615
2.42204
2.47829
2.53487
2.59172
2.64879
2.70601
2.76334
2.82071
2.87806
2.93534
2.99247
3.04939
3.10604
3.16235
3.21825
3.27366
3.32853
3.38278
3.43634
3.48914
3.54112
3.5922
3.64231
3.69139
3.73935
3.78613
3.83166
3.87587
3.91868
3.96003
3.99984
4.03805
4.07458
4.10936
4.14233
4.17342
4.20256
4.22969
4.25476
4.27769
4.29845
4.31698
4.33324
4.34719
4.3588
4.36805
4.37491
4.37934
4.38134
4.38096
4.37818
4.37297
4.36537
4.35543
4.3432
4.32874
4.3121
4.29336
4.27261
4.24993
4.22543
4.1992
4.17137
4.14204
4.11134
4.07939
4.04633
4.01227
3.97734
3.94168
3.9054
3.86862
3.83148
3.79407
3.75653
3.71895
3.68144
3.64411
3.60706
3.57038
3.53416
3.49847
3.46341
3.42903
3.3954
3.36257
3.33057
3.29945
3.26923
3.23992
3.21154
3.18409
3.15756
3.13195
3.10726
3.08351
3.06075
3.03913
3.01879
3.00001
2.98198
2.96347
0.051785
0.10031
0.126198
0.144823
0.160251
0.173965
0.186689
0.198849
0.210718
0.222487
0.234293
0.246241
0.25841
0.270864
0.283654
0.296826
0.310416
0.324461
0.338992
0.354039
0.369629
0.385784
0.402526
0.419871
0.437834
0.456427
0.475658
0.495535
0.516064
0.53725
0.559099
0.581614
0.604801
0.628665
0.653211
0.678445
0.704375
0.731007
0.758349
0.786412
0.815206
0.844744
0.875037
0.906101
0.937949
0.970595
1.00405
1.03834
1.07347
1.10946
1.14631
1.18405
1.22269
1.26223
1.30269
1.34408
1.38641
1.42967
1.47389
1.51904
1.56515
1.6122
1.66019
1.70912
1.75896
1.80972
1.86137
1.9139
1.96727
2.02148
2.07648
2.13226
2.18876
2.24597
2.30383
2.3623
2.42134
2.4809
2.54092
2.60135
2.66214
2.72323
2.78455
2.84605
2.90765
2.96929
3.03091
3.09243
3.15378
3.2149
3.2757
3.33612
3.39608
3.4555
3.51432
3.57245
3.62982
3.68636
3.742
3.79666
3.85027
3.90275
3.95403
4.00404
4.05271
4.09997
4.14573
4.18994
4.23251
4.27339
4.31249
4.34975
4.3851
4.41846
4.44978
4.47899
4.50601
4.5308
4.5533
4.57345
4.59121
4.60653
4.61938
4.62973
4.63755
4.64281
4.6455
4.64563
4.6432
4.63814
4.6305
4.62032
4.60767
4.5926
4.57515
4.55541
4.53346
4.50937
4.48326
4.45521
4.42535
4.39379
4.36065
4.32606
4.29014
4.25304
4.21487
4.17577
4.13587
4.0953
4.05418
4.01262
3.97077
3.92872
3.8866
3.84452
3.80259
3.7609
3.71957
3.67869
3.63835
3.59864
3.55965
3.52143
3.48408
3.44763
3.41215
3.37769
3.3443
3.312
3.28085
3.25086
3.22209
3.19457
3.1684
3.14372
3.12066
3.09945
3.07929
3.05923
0.0543589
0.104111
0.130732
0.1499
0.165774
0.17987
0.192923
0.205367
0.217482
0.229465
0.241461
0.253581
0.265913
0.278524
0.291472
0.304805
0.318562
0.33278
0.34749
0.362718
0.378492
0.394833
0.411759
0.42929
0.447439
0.466222
0.485649
0.505732
0.526481
0.547905
0.570013
0.592814
0.616317
0.640531
0.665468
0.691136
0.717548
0.744714
0.772647
0.80136
0.830869
0.86119
0.89234
0.924335
0.957193
0.990933
1.02557
1.06112
1.09761
1.13505
1.17346
1.21284
1.25323
1.29463
1.33705
1.38051
1.42501
1.47057
1.51718
1.56484
1.61357
1.66336
1.71419
1.76607
1.81897
1.87289
1.9278
1.98369
2.04052
2.09827
2.15691
2.2164
2.2767
2.33776
2.39955
2.462
2.52508
2.58871
2.65285
2.71743
2.78239
2.84766
2.91317
2.97885
3.04464
3.11045
3.17621
3.24184
3.30727
3.37241
3.4372
3.50154
3.56536
3.62857
3.69111
3.75288
3.81381
3.87383
3.93285
3.99081
4.04762
4.10321
4.1575
4.21043
4.26192
4.3119
4.36029
4.40703
4.45205
4.49528
4.53664
4.57607
4.6135
4.64886
4.68208
4.7131
4.74185
4.76826
4.79229
4.81387
4.83296
4.84951
4.86347
4.87482
4.88352
4.88954
4.89287
4.89349
4.89144
4.88652
4.87885
4.86847
4.85544
4.83981
4.82162
4.80095
4.77786
4.75245
4.72479
4.69501
4.6632
4.62947
4.59396
4.55679
4.51808
4.47797
4.43659
4.39408
4.35057
4.30619
4.26108
4.21535
4.16913
4.12256
4.07575
4.02883
3.98191
3.93511
3.88855
3.84233
3.79658
3.75139
3.70687
3.66312
3.62024
3.57831
3.53743
3.49768
3.45914
3.4219
3.38602
3.35158
3.31867
3.28736
3.25776
3.23001
3.20425
3.18066
3.15844
3.13691
0.0561617
0.106734
0.133848
0.153392
0.169581
0.18395
0.197243
0.209897
0.222194
0.234334
0.246465
0.258704
0.27114
0.283847
0.296884
0.3103
0.324134
0.338424
0.353201
0.368493
0.384326
0.400721
0.4177
0.435283
0.453486
0.472326
0.491819
0.511979
0.532821
0.554357
0.576602
0.599568
0.623271
0.647724
0.672941
0.698938
0.725731
0.753335
0.781767
0.811047
0.841194
0.872229
0.904172
0.937046
0.97087
1.00567
1.04146
1.07826
1.1161
1.15499
1.19496
1.23602
1.27819
1.32148
1.3659
1.41148
1.45822
1.50613
1.55521
1.60546
1.65689
1.70948
1.76323
1.81814
1.87417
1.93133
1.98957
2.04888
2.10922
2.17057
2.23288
2.29611
2.36021
2.42513
2.49083
2.55724
2.62431
2.69196
2.76014
2.82877
2.89779
2.96711
3.03667
3.10637
3.17616
3.24593
3.31561
3.38512
3.45437
3.52327
3.59174
3.6597
3.72706
3.79374
3.85964
3.92469
3.98881
4.05191
4.11392
4.17476
4.23435
4.29262
4.3495
4.40491
4.45877
4.51103
4.56161
4.61045
4.65748
4.70262
4.74582
4.78701
4.82613
4.86309
4.89785
4.93033
4.96046
4.9882
5.01347
5.03622
5.0564
5.07396
5.08885
5.10103
5.11048
5.11717
5.12105
5.12211
5.12042
5.11566
5.10795
5.0974
5.08403
5.06789
5.04903
5.0275
5.00338
4.97673
4.94765
4.91624
4.88259
4.84682
4.80905
4.76941
4.72801
4.68501
4.64052
4.59469
4.54765
4.49954
4.45049
4.40064
4.35012
4.29905
4.24757
4.19582
4.14392
4.09199
4.04018
3.9886
3.93739
3.88668
3.83659
3.78725
3.73879
3.69132
3.64498
3.59988
3.55615
3.51391
3.47328
3.43438
3.39731
3.36221
3.3292
3.29842
3.27001
3.2441
3.21995
3.19712
0.0572705
0.10831
0.1357
0.15547
0.171852
0.186391
0.199835
0.21262
0.225031
0.237268
0.249482
0.261785
0.274271
0.287011
0.300066
0.313487
0.327316
0.34159
0.356343
0.371601
0.387394
0.403743
0.420674
0.438208
0.456365
0.475167
0.494634
0.514785
0.535642
0.557206
0.57951
0.602573
0.626414
0.651048
0.676495
0.702772
0.729902
0.757907
0.786812
0.816642
0.847421
0.879175
0.911929
0.945709
0.980539
1.01644
1.05345
1.09158
1.13085
1.1713
1.21293
1.25577
1.29984
1.34515
1.39173
1.43957
1.48869
1.53909
1.59078
1.64377
1.69803
1.75358
1.81038
1.86844
1.92772
1.98821
2.04987
2.11268
2.17659
2.24157
2.30757
2.37453
2.44242
2.51116
2.5807
2.65097
2.72191
2.79344
2.86549
2.93798
3.01083
3.08397
3.1573
3.23074
3.3042
3.3776
3.45084
3.52384
3.5965
3.66874
3.74046
3.81157
3.88199
3.95163
4.0204
4.08821
4.15497
4.22062
4.28507
4.34823
4.41005
4.47043
4.52931
4.58662
4.64229
4.69626
4.74846
4.79882
4.8473
4.89382
4.93832
4.98075
5.02104
5.05913
5.09495
5.12844
5.15955
5.1882
5.21435
5.23794
5.25891
5.27721
5.29279
5.30561
5.31564
5.32284
5.32717
5.32861
5.32721
5.32263
5.31488
5.30416
5.29051
5.27393
5.25448
5.23219
5.20714
5.1794
5.14903
5.11614
5.08081
5.04316
5.0033
4.96135
4.91745
4.87172
4.82429
4.77531
4.7249
4.67322
4.62039
4.56656
4.51185
4.45642
4.4004
4.34392
4.28714
4.23018
4.1732
4.11634
4.05975
4.00358
3.94797
3.89309
3.83909
3.78612
3.73435
3.68394
3.63506
3.58786
3.54251
3.49917
3.45799
3.41915
3.38278
3.34904
3.31805
3.28995
3.26401
3.24008
0.0576608
0.108869
0.136415
0.156299
0.172771
0.187388
0.2009
0.213744
0.226202
0.238472
0.250702
0.263006
0.275477
0.288188
0.301198
0.31456
0.328317
0.342507
0.357164
0.372319
0.388002
0.404238
0.421056
0.438481
0.456538
0.475252
0.494649
0.514757
0.535603
0.557175
0.57954
0.602707
0.626699
0.651538
0.677244
0.703832
0.731337
0.759798
0.789245
0.81971
0.851222
0.883812
0.917511
0.952347
0.988347
1.02554
1.06395
1.10361
1.14454
1.18677
1.23031
1.27518
1.32141
1.369
1.41797
1.46833
1.52009
1.57324
1.6278
1.68374
1.74107
1.79976
1.85981
1.92118
1.98385
2.0478
2.11297
2.17933
2.24684
2.31545
2.3851
2.45574
2.5273
2.59972
2.67292
2.74685
2.82141
2.89653
2.97213
3.04813
3.12443
3.20096
3.27761
3.3543
3.43094
3.50742
3.58367
3.65957
3.73504
3.80999
3.88431
3.95792
4.03073
4.10264
4.17357
4.24342
4.31212
4.37959
4.44574
4.5105
4.57379
4.63556
4.69571
4.7542
4.81095
4.86591
4.91902
4.97022
5.01946
5.06669
5.11185
5.15489
5.19575
5.23437
5.27071
5.30469
5.33627
5.36538
5.39198
5.41601
5.43741
5.45613
5.47212
5.48534
5.49573
5.50327
5.50792
5.50966
5.50851
5.50408
5.4963
5.48546
5.47156
5.45463
5.43468
5.41178
5.38595
5.35727
5.32579
5.29161
5.25482
5.2155
5.17378
5.12977
5.08359
5.03537
4.98524
4.93335
4.87982
4.8248
4.76843
4.71084
4.65219
4.59261
4.53226
4.47127
4.4098
4.34801
4.28605
4.22409
4.16228
4.10081
4.03985
3.97958
3.92018
3.86185
3.80479
3.74919
3.69527
3.64323
3.59327
3.54559
3.50038
3.45779
3.41807
3.3814
3.3479
3.31771
3.29013
3.26538
0.0575588
0.108705
0.136219
0.156091
0.172554
0.187162
0.200662
0.213487
0.22592
0.238157
0.250348
0.262605
0.275018
0.287661
0.300593
0.313867
0.327525
0.341609
0.356153
0.371192
0.386757
0.402878
0.419588
0.436915
0.45489
0.473538
0.492893
0.512986
0.533846
0.555505
0.57799
0.601331
0.625557
0.650699
0.676794
0.703842
0.731906
0.761024
0.791237
0.822583
0.855096
0.888817
0.923781
0.960013
0.997543
1.0364
1.07661
1.11821
1.16122
1.20566
1.25154
1.29889
1.3477
1.39801
1.44981
1.5031
1.55789
1.61417
1.67194
1.73117
1.79184
1.85395
1.91745
1.98231
2.04851
2.11599
2.18471
2.25462
2.32566
2.39779
2.47092
2.54501
2.61997
2.69574
2.77224
2.84939
2.92711
3.0053
3.08389
3.16279
3.2419
3.32114
3.4004
3.47959
3.55863
3.63739
3.71581
3.79377
3.87117
3.94794
4.02396
4.09915
4.17342
4.24667
4.31882
4.38978
4.45947
4.52781
4.59473
4.66015
4.72401
4.78624
4.84677
4.90554
4.96249
5.01759
5.07077
5.12199
5.17121
5.21837
5.26344
5.30636
5.3471
5.3856
5.42182
5.4557
5.48719
5.51624
5.54281
5.56684
5.58827
5.60706
5.62315
5.63649
5.64703
5.65473
5.65956
5.66153
5.66057
5.65631
5.64851
5.63759
5.62353
5.60635
5.58606
5.56269
5.53628
5.50687
5.47452
5.43931
5.4013
5.3606
5.3173
5.27152
5.22337
5.17298
5.12047
5.06598
5.00965
4.95162
4.89202
4.83101
4.76872
4.7053
4.64092
4.57572
4.50987
4.44354
4.37688
4.31009
4.24335
4.17685
4.11079
4.04537
3.98082
3.91737
3.85523
3.79455
3.73566
3.67881
3.62428
3.57231
3.52315
3.47716
3.43443
3.39515
3.35943
3.32744
3.2985
3.27321
0.0571128
0.108041
0.135367
0.15512
0.171475
0.185976
0.199371
0.212091
0.224418
0.236547
0.248625
0.260764
0.273053
0.285563
0.298356
0.311485
0.324995
0.338931
0.35333
0.36823
0.383668
0.399682
0.416309
0.433589
0.451561
0.470264
0.48973
0.509999
0.531111
0.553117
0.576035
0.599895
0.624736
0.65059
0.677471
0.70542
0.734527
0.764843
0.79641
0.829266
0.863448
0.898988
0.935914
0.974261
1.01406
1.05534
1.09813
1.14247
1.18837
1.23583
1.28485
1.33546
1.38764
1.4414
1.49674
1.55364
1.61208
1.67206
1.73355
1.79651
1.86093
1.92675
1.99395
2.06247
2.13227
2.2033
2.27549
2.34879
2.42313
2.49846
2.57469
2.65176
2.72959
2.8081
2.88722
2.96686
3.04693
3.12734
3.20802
3.28886
3.36978
3.45068
3.53147
3.61206
3.69234
3.77223
3.85162
3.93043
4.00856
4.08591
4.16239
4.23792
4.31241
4.38576
4.4579
4.52874
4.5982
4.66621
4.73271
4.79763
4.8609
4.92246
4.98226
5.04023
5.09633
5.15053
5.20279
5.25306
5.30131
5.34751
5.39161
5.43359
5.47342
5.51105
5.54643
5.57954
5.6103
5.63872
5.66471
5.68826
5.70929
5.72776
5.74361
5.75678
5.76722
5.77489
5.77976
5.78186
5.78106
5.77697
5.76919
5.75825
5.74414
5.72683
5.70635
5.6827
5.65591
5.626
5.59303
5.55705
5.51813
5.47634
5.43178
5.38455
5.33476
5.28252
5.22798
5.17124
5.11246
5.05176
4.98928
4.92518
4.8596
4.79269
4.72462
4.65555
4.58564
4.51509
4.44406
4.37276
4.30137
4.23004
4.15907
4.08868
4.01913
3.9507
3.88363
3.81836
3.75506
3.69398
3.63542
3.5797
3.52717
3.47794
3.43232
3.39055
3.35276
3.31913
3.28902
3.26349
0.0562629
0.106713
0.13368
0.153177
0.169311
0.183609
0.196815
0.20936
0.221525
0.233506
0.245446
0.257457
0.269625
0.282023
0.294716
0.307759
0.321203
0.335096
0.349484
0.364414
0.379929
0.396073
0.412895
0.430447
0.448793
0.467956
0.487978
0.508906
0.530783
0.553628
0.57746
0.602367
0.628413
0.65566
0.68418
0.714015
0.745217
0.777834
0.811907
0.847476
0.884572
0.923221
0.963448
1.00527
1.04872
1.09379
1.14051
1.18887
1.23887
1.2905
1.34376
1.39862
1.45508
1.51312
1.5727
1.6338
1.69639
1.76042
1.82587
1.89268
1.9608
2.0302
2.10082
2.17259
2.24547
2.3194
2.39431
2.47013
2.54681
2.62427
2.70245