/*--------------------------------*- C++ -*----------------------------------*\
| =========                 |                                                 |
| \\      /  F ield         | OpenFOAM: The Open Source CFD Toolbox           |
|  \\    /   O peration     | Version:  5.0                                   |
|   \\  /    A nd           | Web:      www.OpenFOAM.org                      |
|    \\/     M anipulation  |                                                 |
\*---------------------------------------------------------------------------*/
FoamFile
{
    version     2.0;
    format      ascii;
    class       volScalarField;
    location    "200";
    object      nut;
}
// * * * * * * * * * * * * * * * * * * * * * * * * * * * * * * * * * * * * * //

dimensions      [0 2 -1 0 0 0 0];

internalField   nonuniform List<scalar> 
12225
(
4.14924e-05
3.93409e-05
3.74829e-05
3.54331e-05
3.37838e-05
3.24211e-05
3.15092e-05
3.09116e-05
3.09178e-05
3.10949e-05
3.15727e-05
3.2101e-05
3.31606e-05
3.37972e-05
3.5131e-05
3.56808e-05
3.73636e-05
3.6699e-05
0.000332215
0.000215176
0.000179269
0.000157677
0.000146208
0.000138209
0.000132729
0.000131667
0.000129492
0.000130081
0.00012903
0.000129458
0.000128641
0.000128576
0.000128072
0.000127417
0.000127414
0.000126486
0.000668679
0.000450661
0.000355751
0.000309835
0.000275275
0.000251103
0.000231698
0.000217283
0.000202655
0.000192136
0.000182597
0.000175214
0.000169355
0.000163675
0.000160281
0.000155545
0.000153783
0.000149828
0.000801681
0.000691666
0.000572542
0.000500062
0.000449369
0.000411995
0.000380759
0.000356014
0.000333985
0.000314787
0.000298303
0.000281713
0.000270284
0.000256052
0.000248173
0.000236131
0.000230349
0.000220412
0.000839623
0.00081019
0.000740695
0.000676421
0.000623918
0.000581394
0.000545853
0.000514564
0.000489501
0.00046443
0.000445843
0.000424063
0.000409916
0.000390783
0.000379853
0.000363061
0.000354424
0.000339466
0.000850344
0.000843278
0.000819552
0.000786529
0.000750764
0.000715889
0.000685747
0.000656132
0.000632538
0.000607512
0.000588986
0.000567235
0.000552265
0.000533076
0.000520752
0.000503699
0.00049326
0.000477446
0.000851579
0.000851019
0.000843299
0.000833478
0.000817108
0.000796952
0.000777866
0.000756734
0.000738895
0.000719141
0.000703525
0.00068561
0.000672109
0.000655905
0.000644282
0.000629506
0.000619474
0.000605121
0.000851581
0.000851816
0.000850037
0.000847462
0.000841401
0.00083375
0.000824822
0.000813432
0.000802808
0.000790467
0.00077971
0.000767533
0.000757415
0.000745771
0.000736522
0.00072551
0.000717128
0.000706017
0.000851673
0.000851531
0.000851015
0.000850343
0.000848875
0.00084617
0.000843026
0.000838304
0.000833402
0.000827359
0.000821214
0.000814769
0.000808403
0.000801519
0.000795231
0.000788406
0.000782156
0.000775243
0.000851754
0.000851386
0.000851043
0.000850633
0.000850247
0.000849368
0.000848404
0.00084678
0.000844955
0.000842529
0.000839922
0.000836798
0.000833791
0.000830149
0.000826965
0.00082292
0.000819892
0.000815289
0.000851784
0.000851358
0.000851012
0.000850613
0.000850329
0.000849905
0.000849525
0.000848928
0.000848303
0.000847393
0.000846465
0.000845176
0.000843989
0.00084235
0.000840994
0.000839029
0.000837636
0.000835357
0.000851788
0.000851359
0.000850995
0.000850605
0.000850292
0.000849938
0.000849646
0.00084928
0.000848955
0.000848504
0.000848098
0.000847507
0.000846997
0.000846243
0.00084564
0.000844719
0.000844056
0.000842974
0.000851786
0.000851363
0.000850985
0.000850604
0.000850269
0.000849926
0.00084963
0.000849313
0.000849042
0.000848728
0.000848462
0.000848126
0.000847843
0.000847465
0.000847156
0.000846725
0.000846386
0.000845901
0.000851783
0.000851364
0.000850978
0.000850602
0.000850256
0.000849916
0.000849607
0.0008493
0.000849022
0.00084874
0.000848488
0.000848224
0.000847988
0.000847734
0.000847508
0.000847257
0.000847033
0.000846783
0.000851781
0.000851364
0.000850973
0.000850598
0.000850246
0.000849908
0.000849591
0.000849286
0.000849
0.000848723
0.000848463
0.000848211
0.000847975
0.000847744
0.000847528
0.000847316
0.000847115
0.000846919
0.00085178
0.000851363
0.000850969
0.000850594
0.000850239
0.000849901
0.00084958
0.000849275
0.000848984
0.000848707
0.000848443
0.000848191
0.000847951
0.000847721
0.000847502
0.000847293
0.000847093
0.000846901
0.000851779
0.000851362
0.000850967
0.000850591
0.000850234
0.000849895
0.000849572
0.000849265
0.000848973
0.000848694
0.000848428
0.000848175
0.000847933
0.000847701
0.00084748
0.000847269
0.000847067
0.000846874
0.000851779
0.000851362
0.000850965
0.000850588
0.000850231
0.00084989
0.000849567
0.000849259
0.000848965
0.000848685
0.000848418
0.000848163
0.00084792
0.000847687
0.000847465
0.000847252
0.000847049
0.000846854
0.000851779
0.000851362
0.000850965
0.000850588
0.00085023
0.000849889
0.000849565
0.000849256
0.000848962
0.000848681
0.000848414
0.000848158
0.000847914
0.00084768
0.000847457
0.000847243
0.000847039
0.000846844
0.000851779
0.000851362
0.000850966
0.000850589
0.000850231
0.000849891
0.000849567
0.000849259
0.000848965
0.000848685
0.000848417
0.000848162
0.000847917
0.000847684
0.00084746
0.000847246
0.000847041
0.000846845
0.000851779
0.000851363
0.000850967
0.000850592
0.000850235
0.000849897
0.000849573
0.000849267
0.000848972
0.000848694
0.000848424
0.000848169
0.00084792
0.000847683
0.000847451
0.000847231
0.000847013
0.000846806
0.000851778
0.000851366
0.000850968
0.000850599
0.00085024
0.000849907
0.00084958
0.000849274
0.000848964
0.000848671
0.000848365
0.000848072
0.000847756
0.000847456
0.000847123
0.000846811
0.000846457
0.000846136
0.000851773
0.000851376
0.000850971
0.000850615
0.000850241
0.000849889
0.000849478
0.000849054
0.000848529
0.000847978
0.000847301
0.000846605
0.000845767
0.000844939
0.000843955
0.000843029
0.000841918
0.00084094
0.000851768
0.000851415
0.000850964
0.000850548
0.000849861
0.000848966
0.00084761
0.000845976
0.000843905
0.000841636
0.000838955
0.000836214
0.000833117
0.000830114
0.000826763
0.00082368
0.000820184
0.000817178
0.000851859
0.00085138
0.000850195
0.000848243
0.000844469
0.000839354
0.000832765
0.000825658
0.000817962
0.000810011
0.000801618
0.000793628
0.000785332
0.000777707
0.000769744
0.000762701
0.000755124
0.000748795
0.000852108
0.000847667
0.000839902
0.000827146
0.000808707
0.000789646
0.000769975
0.000751413
0.000733305
0.000716895
0.000700934
0.000686781
0.00067283
0.000660671
0.000648379
0.000637942
0.000626955
0.000618021
0.000843241
0.000822506
0.000775185
0.000726459
0.000684894
0.000649852
0.000618461
0.000592019
0.000568382
0.000548312
0.000529689
0.000513991
0.000498752
0.000486017
0.000473203
0.000462709
0.000451624
0.000442807
0.000795685
0.000668241
0.000570627
0.000509905
0.000465605
0.000431183
0.000404146
0.000382481
0.0003642
0.00034907
0.000335942
0.000325062
0.000314508
0.000306237
0.000297961
0.000291369
0.000284283
0.000278933
0.000501314
0.000348356
0.000292674
0.00025918
0.000236322
0.000221177
0.000211621
0.000203855
0.000198564
0.000195076
0.000192221
0.000190368
0.000188583
0.000187438
0.000186166
0.000185472
0.000184555
0.000184142
7.27384e-05
7.02255e-05
6.79541e-05
6.56137e-05
6.33828e-05
6.12762e-05
5.94944e-05
5.79551e-05
5.67109e-05
5.57031e-05
5.49776e-05
5.44178e-05
5.41096e-05
5.38809e-05
5.38975e-05
5.39325e-05
5.40912e-05
5.43237e-05
4.86456e-07
1.07828e-05
1.91914e-05
2.71215e-05
3.54899e-05
4.44041e-05
5.3936e-05
6.40478e-05
7.45695e-05
8.53027e-05
9.60286e-05
0.000106579
0.000116796
0.000126571
0.00013579
0.000144377
0.000152255
0.000159402
0.000165839
0.000171711
0.00017728
0.000182527
0.000187263
0.000196545
0.000207108
0.000219472
0.000231101
0.000238693
0.000236545
0.000231256
0.000219899
0.000210282
0.000202308
0.000182611
3.83092e-05
4.54825e-05
4.76975e-05
4.84636e-05
4.9602e-05
5.0765e-05
5.18724e-05
5.30179e-05
5.41361e-05
5.52658e-05
5.63857e-05
5.75058e-05
5.86218e-05
5.97349e-05
6.08456e-05
6.19528e-05
6.3058e-05
6.416e-05
6.52599e-05
6.63567e-05
6.74514e-05
6.85429e-05
6.96321e-05
7.0718e-05
7.18011e-05
7.28805e-05
7.39567e-05
7.50288e-05
7.6097e-05
7.71604e-05
7.82193e-05
7.92725e-05
8.03204e-05
8.13619e-05
8.23971e-05
8.3425e-05
8.44455e-05
8.54578e-05
8.64616e-05
8.74561e-05
8.84411e-05
8.94156e-05
9.03793e-05
9.13316e-05
9.22719e-05
9.31994e-05
9.41138e-05
9.50141e-05
9.58998e-05
9.67699e-05
9.76238e-05
9.84606e-05
9.92792e-05
0.000100079
0.000100858
0.000101615
0.000102349
0.000103058
0.000103742
0.000104401
0.00010504
0.000105662
0.00010626
0.000106835
0.000107386
0.000107913
0.000108416
0.000108894
0.000109345
0.00010977
0.000110169
0.000110539
0.000110882
0.000111196
0.000111481
0.000111736
0.00011196
0.000112154
0.000112317
0.000112447
0.000112546
0.000112612
0.000112646
0.000112647
0.000112615
0.000112553
0.000112447
0.000112315
0.000112147
0.000111934
0.000111693
0.000111436
0.000111144
0.000110812
0.000110449
0.000110054
0.000109628
0.000109172
0.000108686
0.000108171
0.000107628
0.000107058
0.000106461
0.000105841
0.0001052
0.00010454
0.000103862
0.000103168
0.000102459
0.000101739
0.000101009
0.00010027
9.95271e-05
9.87796e-05
9.80325e-05
9.72848e-05
9.65413e-05
9.58005e-05
9.50673e-05
9.4341e-05
9.36273e-05
9.29243e-05
9.22379e-05
9.15667e-05
9.09154e-05
9.0282e-05
8.9673e-05
8.9086e-05
8.85252e-05
8.79953e-05
8.75537e-05
8.76597e-05
8.75068e-05
8.72353e-05
8.70162e-05
8.68287e-05
8.66828e-05
8.65567e-05
8.64551e-05
8.63816e-05
8.63536e-05
8.63477e-05
8.62609e-05
8.6147e-05
8.59325e-05
8.46842e-05
2.0928e-06
3.8937e-05
8.20687e-05
0.000111779
0.000131659
0.00014684
0.00016006
0.000172676
0.000185212
0.000197761
0.000210216
0.000222403
0.000234139
0.000245262
0.000255628
0.000265121
0.000273658
0.00028121
0.000287838
0.000293735
0.000299274
0.000304705
0.000309804
0.000315063
0.000320406
0.000325339
0.000328813
0.000327524
0.000321779
0.000312058
0.000297733
0.000281985
0.000278916
0.000255283
0.000243564
0.000261816
0.000272784
0.000278925
0.000285934
0.000293126
0.000300803
0.000308494
0.000316369
0.000324325
0.000332385
0.000340523
0.000348739
0.000357026
0.000365386
0.000373814
0.000382317
0.000390891
0.000399542
0.000408269
0.000417077
0.000425964
0.000434937
0.000443993
0.000453139
0.00046237
0.000471692
0.000481101
0.000490603
0.000500192
0.000509873
0.00051964
0.000529497
0.000539437
0.000549463
0.000559569
0.000569756
0.000580017
0.000590354
0.000600758
0.000611231
0.000621764
0.000632358
0.000643003
0.0006537
0.000664442
0.000675227
0.000686049
0.000696908
0.000707795
0.000718711
0.000729648
0.000740601
0.000751561
0.000762516
0.000773444
0.000784308
0.000795042
0.000805528
0.000815585
0.000824907
0.000834041
0.000843065
0.000851976
0.000860764
0.000869422
0.00087794
0.000886307
0.000894514
0.00090255
0.000910403
0.000918064
0.00092552
0.000932761
0.000939774
0.00094655
0.000953074
0.000959338
0.000965327
0.000971032
0.000976441
0.000981544
0.000986328
0.000990789
0.000994916
0.000998715
0.00100221
0.00100547
0.00100831
0.00101052
0.00101224
0.00101399
0.00101548
0.00101644
0.00101703
0.00101726
0.00101712
0.00101663
0.00101579
0.00101462
0.00101311
0.00101129
0.00100917
0.00100677
0.00100409
0.00100115
0.000997963
0.000994554
0.000990947
0.000987162
0.000983225
0.000979153
0.000974976
0.00097071
0.000966386
0.000962019
0.000957636
0.000953252
0.0009489
0.000944593
0.000940365
0.000936226
0.000932211
0.000928329
0.000924611
0.000921061
0.000917707
0.000914546
0.000911595
0.000908848
0.000906297
0.000903796
0.000899129
0.000894608
0.000890282
0.000886017
0.000881943
0.000877801
0.000873571
0.000869247
0.000864933
0.000860447
0.0008554
0.000849142
0.000840415
0.000816031
4.16472e-06
6.0975e-05
0.000126255
0.000176065
0.000212438
0.000239279
0.000260133
0.000277518
0.000293006
0.000307454
0.00032125
0.000334501
0.000347173
0.000359172
0.000370385
0.000380712
0.000390082
0.000398473
0.000405933
0.000412577
0.00041857
0.000424359
0.000430918
0.000438608
0.000447221
0.000456235
0.000464545
0.000471334
0.000476368
0.000480008
0.000483368
0.000487732
0.000494367
0.000499654
0.000511323
0.000529061
0.000545143
0.000560478
0.000576013
0.000591637
0.000607496
0.000623494
0.000639656
0.000655956
0.000672393
0.000688962
0.00070566
0.000722486
0.000739443
0.000756532
0.000773758
0.000791124
0.000808632
0.000826287
0.00084409
0.000862045
0.000880154
0.000898418
0.000916839
0.000935415
0.000954149
0.000973037
0.000992081
0.00101128
0.00103062
0.00105011
0.00106974
0.00108951
0.00110941
0.00112944
0.00114958
0.00116984
0.0011902
0.00121067
0.00123122
0.00125185
0.00127255
0.00129331
0.00131413
0.00133499
0.00135588
0.00137679
0.00139771
0.00141863
0.00143954
0.00146041
0.00148124
0.00150199
0.00152263
0.00154313
0.00156342
0.00158343
0.00160307
0.00162226
0.00164099
0.00165947
0.00167773
0.00169575
0.00171351
0.00173098
0.00174816
0.00176502
0.00178154
0.00179771
0.00181349
0.00182886
0.00184381
0.00185832
0.00187235
0.00188589
0.00189892
0.00191141
0.00192333
0.00193468
0.00194542
0.00195554
0.00196502
0.00197384
0.001982
0.00198949
0.00199632
0.00200248
0.00200813
0.00201272
0.0020161
0.00201922
0.00202188
0.00202363
0.0020246
0.00202483
0.00202432
0.0020231
0.00202117
0.00201855
0.00201527
0.00201134
0.0020068
0.00200167
0.00199598
0.00198975
0.00198304
0.00197587
0.0019683
0.00196036
0.0019521
0.00194357
0.00193482
0.00192587
0.0019168
0.00190763
0.00189841
0.00188919
0.00188001
0.00187092
0.00186197
0.00185319
0.00184462
0.00183631
0.0018283
0.0018206
0.00181325
0.00180626
0.00179964
0.00179337
0.00178738
0.00178127
0.00177367
0.00176609
0.00175846
0.00175096
0.00174398
0.00173673
0.00172905
0.00172128
0.0017138
0.0017059
0.00169697
0.00168545
0.00166898
0.00162942
6.34098e-06
7.76417e-05
0.000159649
0.000224242
0.000272731
0.000309188
0.000337375
0.000360147
0.000379505
0.00039674
0.000412611
0.000427515
0.000441628
0.000455001
0.000467629
0.000479496
0.000490612
0.000501034
0.0005109
0.000520448
0.000530026
0.000540101
0.000551175
0.000563547
0.000577229
0.00059195
0.000607164
0.000622364
0.000637326
0.000652222
0.000667531
0.00068369
0.000700444
0.000719134
0.000740052
0.000762505
0.000784659
0.000806705
0.00082896
0.000851419
0.000874057
0.000896858
0.000919826
0.000942958
0.000966255
0.000989717
0.00101335
0.00103715
0.00106112
0.00108527
0.00110961
0.00113413
0.00115885
0.00118377
0.00120888
0.00123421
0.00125973
0.00128546
0.0013114
0.00133754
0.00136388
0.00139042
0.00141716
0.00144409
0.0014712
0.00149849
0.00152596
0.00155359
0.00158138
0.00160931
0.00163738
0.00166558
0.00169389
0.0017223
0.00175081
0.00177939
0.00180803
0.00183672
0.00186545
0.00189419
0.00192294
0.00195167
0.00198037
0.00200902
0.00203759
0.00206606
0.00209441
0.00212261
0.00215061
0.00217837
0.00220585
0.00223298
0.00225972
0.00228601
0.00231193
0.00233753
0.0023628
0.00238773
0.0024123
0.00243648
0.00246024
0.00248356
0.0025064
0.00252875
0.00255058
0.00257185
0.00259254
0.00261261
0.00263205
0.00265082
0.00266888
0.00268622
0.0027028
0.00271858
0.00273356
0.00274769
0.00276095
0.00277332
0.00278479
0.00279534
0.00280496
0.00281362
0.00282159
0.00282844
0.0028336
0.00283803
0.00284185
0.0028445
0.00284609
0.00284663
0.00284616
0.00284467
0.0028422
0.00283877
0.00283439
0.00282911
0.00282295
0.00281596
0.00280816
0.00279961
0.00279036
0.00278045
0.00276996
0.00275893
0.00274743
0.00273552
0.00272326
0.00271072
0.00269795
0.00268502
0.002672
0.00265894
0.00264592
0.00263299
0.00262021
0.00260766
0.00259538
0.00258343
0.00257186
0.0025607
0.00255001
0.0025398
0.00253007
0.00252083
0.00251197
0.0025032
0.00249377
0.00248434
0.00247491
0.00246576
0.00245683
0.00244801
0.00243895
0.0024299
0.00242082
0.00241126
0.00240065
0.00238743
0.00236769
0.00232577
8.4437e-06
9.15283e-05
0.000187341
0.000264136
0.000323204
0.000368238
0.000403208
0.000431231
0.000454606
0.000474943
0.0004933
0.000510342
0.000526459
0.000541876
0.000556724
0.000571096
0.000585087
0.000598821
0.000612476
0.000626295
0.000640584
0.000655693
0.000671949
0.000689567
0.000708567
0.000728741
0.000749781
0.000771404
0.000793445
0.000815937
0.000839088
0.000863152
0.000887695
0.000913004
0.000939217
0.000966002
0.000993171
0.00102058
0.00104813
0.0010758
0.00110364
0.00113166
0.00115986
0.00118826
0.00121686
0.00124565
0.00127464
0.00130383
0.00133323
0.00136283
0.00139264
0.00142268
0.00145295
0.00148345
0.00151419
0.00154516
0.00157637
0.00160781
0.00163949
0.00167139
0.00170353
0.00173588
0.00176844
0.00180121
0.00183419
0.00186735
0.00190069
0.0019342
0.00196786
0.00200167
0.00203562
0.00206967
0.00210384
0.00213808
0.0021724
0.00220677
0.00224118
0.00227561
0.00231004
0.00234444
0.00237881
0.00241312
0.00244734
0.00248146
0.00251545
0.00254927
0.00258292
0.00261634
0.00264951
0.0026824
0.00271497
0.00274719
0.00277903
0.0028105
0.00284158
0.00287229
0.00290262
0.00293254
0.00296202
0.00299104
0.00301956
0.00304757
0.00307503
0.0031019
0.00312816
0.00315378
0.00317873
0.00320297
0.00322646
0.00324918
0.00327109
0.00329215
0.00331234
0.00333161
0.00334994
0.0033673
0.00338364
0.00339896
0.00341322
0.00342639
0.00343846
0.00344939
0.00345944
0.0034684
0.00347552
0.00348139
0.00348654
0.00349037
0.00349292
0.00349423
0.00349429
0.00349314
0.00349078
0.00348725
0.00348257
0.00347678
0.00346991
0.00346201
0.00345311
0.00344327
0.00343256
0.00342103
0.00340874
0.00339578
0.0033822
0.00336808
0.00335349
0.00333851
0.00332321
0.00330767
0.00329198
0.00327619
0.00326041
0.00324469
0.00322913
0.00321379
0.00319875
0.00318407
0.00316982
0.00315606
0.00314283
0.00313017
0.0031181
0.00310662
0.00309567
0.00308505
0.00307439
0.00306387
0.00305353
0.00304347
0.00303358
0.00302391
0.00301422
0.00300457
0.00299486
0.00298477
0.0029738
0.00296057
0.00294137
0.00290275
1.04084e-05
0.000103127
0.000210475
0.000297788
0.0003663
0.00041925
0.000460715
0.000493985
0.000521578
0.000545342
0.000566584
0.000586194
0.000604764
0.000622683
0.000640212
0.000657545
0.000674842
0.000692264
0.000709983
0.000728198
0.000747127
0.000766991
0.000787981
0.000810211
0.000833681
0.000858275
0.000883808
0.000910085
0.000936967
0.000964409
0.00099244
0.00102109
0.00105027
0.00108003
0.00111032
0.00114105
0.00117211
0.00120343
0.00123496
0.00126668
0.00129859
0.0013307
0.001363
0.00139551
0.00142823
0.00146116
0.00149431
0.00152768
0.00156128
0.00159512
0.00162921
0.00166353
0.00169808
0.00173287
0.0017679
0.00180317
0.00183867
0.0018744
0.00191036
0.00194654
0.00198295
0.00201956
0.00205638
0.00209339
0.00213059
0.00216796
0.00220549
0.00224318
0.002281
0.00231894
0.002357
0.00239514
0.00243337
0.00247165
0.00250998
0.00254833
0.00258669
0.00262503
0.00266335
0.00270161
0.00273979
0.00277788
0.00281586
0.00285369
0.00289136
0.00292884
0.0029661
0.00300311
0.00303986
0.00307631
0.00311244
0.00314822
0.00318365
0.00321871
0.00325338
0.00328764
0.00332149
0.0033549
0.00338783
0.00342027
0.00345219
0.00348354
0.00351432
0.00354447
0.00357398
0.00360281
0.00363092
0.00365829
0.00368487
0.00371062
0.00373553
0.00375953
0.00378261
0.00380472
0.00382582
0.00384588
0.00386487
0.00388275
0.00389948
0.00391505
0.00392941
0.00394253
0.0039546
0.00396563
0.00397484
0.00398242
0.00398913
0.00399443
0.00399832
0.0040008
0.00400188
0.00400158
0.00399992
0.00399692
0.00399261
0.00398703
0.0039802
0.00397217
0.00396298
0.00395271
0.00394139
0.00392911
0.00391592
0.00390191
0.00388715
0.00387171
0.00385569
0.00383915
0.00382219
0.00380489
0.00378735
0.00376965
0.00375188
0.00373413
0.00371649
0.00369905
0.00368189
0.0036651
0.00364875
0.00363291
0.00361765
0.00360301
0.00358904
0.00357575
0.00356311
0.00355102
0.00353927
0.00352788
0.00351687
0.00350627
0.00349602
0.0034861
0.00347639
0.00346684
0.00345736
0.00344771
0.00343747
0.00342549
0.00340858
0.00337649
1.21853e-05
0.000112688
0.000229636
0.000326105
0.000403087
0.000463461
0.000511222
0.000549771
0.000581774
0.000609254
0.000633704
0.0006562
0.0006775
0.000698132
0.000718472
0.000738789
0.000759295
0.000780165
0.000801557
0.000823622
0.000846504
0.000870329
0.000895195
0.000921149
0.000948176
0.000976201
0.00100511
0.00103476
0.00106506
0.00109593
0.00112735
0.00115929
0.00119173
0.00122463
0.00125797
0.00129168
0.0013257
0.00135999
0.00139451
0.00142925
0.00146419
0.00149933
0.00153468
0.00157023
0.00160599
0.00164197
0.00167816
0.00171457
0.00175121
0.00178808
0.00182517
0.0018625
0.00190006
0.00193785
0.00197586
0.0020141
0.00205257
0.00209126
0.00213016
0.00216928
0.0022086
0.00224811
0.00228782
0.0023277
0.00236775
0.00240796
0.00244831
0.0024888
0.0025294
0.00257011
0.00261091
0.00265178
0.00269271
0.00273368
0.00277467
0.00281566
0.00285664
0.00289759
0.00293849
0.00297931
0.00302004
0.00306066
0.00310114
0.00314146
0.00318161
0.00322155
0.00326126
0.00330072
0.00333992
0.00337882
0.0034174
0.00345565
0.00349355
0.00353109
0.00356823
0.00360498
0.0036413
0.00367717
0.00371257
0.00374747
0.00378184
0.00381566
0.00384889
0.00388151
0.00391349
0.00394478
0.00397536
0.0040052
0.00403425
0.00406249
0.00408986
0.00411634
0.00414188
0.00416645
0.00418999
0.00421249
0.00423388
0.00425415
0.00427324
0.00429111
0.00430775
0.00432309
0.00433728
0.00435039
0.00436178
0.00437145
0.00437994
0.00438701
0.00439258
0.00439662
0.00439913
0.00440013
0.00439964
0.00439767
0.00439426
0.00438943
0.00438321
0.00437564
0.00436678
0.00435667
0.00434538
0.00433297
0.00431951
0.00430508
0.00428975
0.00427361
0.00425675
0.00423924
0.00422119
0.00420268
0.00418382
0.00416469
0.00414541
0.00412607
0.00410677
0.00408761
0.00406869
0.0040501
0.00403193
0.00401428
0.00399721
0.0039808
0.0039651
0.00395016
0.00393597
0.00392249
0.00390962
0.00389735
0.00388566
0.00387455
0.003864
0.00385398
0.00384439
0.0038352
0.00382632
0.00381757
0.00380863
0.00379857
0.00378478
0.0037602
1.37389e-05
0.000120385
0.000245206
0.00034984
0.000434225
0.000501496
0.000555318
0.000599121
0.000635646
0.000667032
0.000694904
0.000720476
0.000744634
0.000768021
0.000791099
0.000814204
0.000837583
0.000861424
0.000885874
0.000911054
0.000937059
0.000963968
0.000991821
0.00102063
0.00105036
0.00108097
0.00111237
0.00114448
0.0011772
0.00121049
0.00124429
0.00127858
0.0013133
0.00134845
0.00138397
0.00141983
0.00145598
0.00149239
0.00152903
0.00156588
0.00160293
0.00164018
0.00167762
0.00171526
0.0017531
0.00179113
0.00182937
0.00186781
0.00190646
0.00194533
0.0019844
0.00202369
0.00206319
0.0021029
0.00214283
0.00218296
0.0022233
0.00226384
0.00230458
0.00234551
0.00238663
0.00242792
0.00246939
0.00251102
0.00255281
0.00259473
0.00263678
0.00267896
0.00272123
0.0027636
0.00280605
0.00284855
0.00289111
0.00293369
0.00297629
0.00301889
0.00306146
0.003104
0.00314648
0.00318889
0.0032312
0.00327339
0.00331545
0.00335736
0.00339909
0.00344063
0.00348195
0.00352303
0.00356386
0.00360441
0.00364466
0.00368461
0.00372422
0.00376348
0.00380238
0.00384089
0.003879
0.00391667
0.00395389
0.00399064
0.00402688
0.0040626
0.00409776
0.00413233
0.00416628
0.00419959
0.00423222
0.00426413
0.0042953
0.00432568
0.00435523
0.00438392
0.0044117
0.00443853
0.00446437
0.00448917
0.0045129
0.0045355
0.00455693
0.00457715
0.00459612
0.00461379
0.00463024
0.00464556
0.00465923
0.00467125
0.00468183
0.00469098
0.00469855
0.00470448
0.00470878
0.00471145
0.00471252
0.00471199
0.0047099
0.00470625
0.00470109
0.00469444
0.00468635
0.00467687
0.00466606
0.00465397
0.00464068
0.00462626
0.00461079
0.00459436
0.00457704
0.00455894
0.00454014
0.00452076
0.00450088
0.00448061
0.00446007
0.00443936
0.0044186
0.00439788
0.00437733
0.00435705
0.00433715
0.00431773
0.00429888
0.0042807
0.00426326
0.00424663
0.00423083
0.00421588
0.00420175
0.00418843
0.00417591
0.00416418
0.00415325
0.00414308
0.00413363
0.00412487
0.00411674
0.00410913
0.0041018
0.00409401
0.00408369
0.00406605
1.50477e-05
0.000126382
0.000257521
0.000369139
0.000460103
0.000533713
0.000593288
0.000642216
0.00068326
0.000718619
0.000750002
0.000778716
0.000805744
0.000831813
0.000857458
0.00088307
0.000908926
0.000935223
0.000962104
0.000989673
0.001018
0.00104719
0.00107724
0.00110813
0.00113983
0.00117228
0.00120544
0.00123923
0.00127359
0.00130848
0.00134384
0.00137964
0.00141584
0.00145241
0.00148934
0.0015266
0.00156412
0.00160186
0.00163981
0.00167794
0.00171625
0.00175474
0.0017934
0.00183222
0.00187123
0.0019104
0.00194976
0.0019893
0.00202902
0.00206893
0.00210903
0.00214932
0.0021898
0.00223047
0.00227133
0.00231238
0.00235361
0.00239504
0.00243664
0.00247842
0.00252038
0.0025625
0.00260478
0.00264722
0.0026898
0.00273252
0.00277536
0.00281832
0.00286139
0.00290455
0.00294779
0.00299109
0.00303445
0.00307785
0.00312128
0.00316471
0.00320813
0.00325154
0.00329489
0.00333819
0.00338141
0.00342454
0.00346755
0.00351043
0.00355316
0.00359572
0.00363809
0.00368025
0.00372218
0.00376387
0.00380529
0.00384644
0.00388728
0.00392781
0.00396801
0.00400785
0.00404731
0.00408639
0.00412504
0.00416326
0.00420102
0.00423829
0.00427505
0.00431127
0.00434692
0.00438198
0.00441641
0.00445018
0.00448326
0.0045156
0.00454718
0.00457794
0.00460786
0.00463687
0.00466494
0.00469203
0.00471807
0.00474303
0.00476686
0.0047895
0.00481092
0.00483104
0.00484994
0.00486761
0.00488372
0.00489828
0.00491128
0.00492279
0.00493266
0.00494079
0.00494719
0.00495186
0.00495482
0.00495608
0.00495566
0.00495356
0.00494982
0.00494445
0.00493749
0.004929
0.00491901
0.00490759
0.00489479
0.00488071
0.0048654
0.00484896
0.00483146
0.00481301
0.0047937
0.00477364
0.00475292
0.00473167
0.00470999
0.00468801
0.00466584
0.00464362
0.00462145
0.00459946
0.00457778
0.00455653
0.00453581
0.00451574
0.00449643
0.00447795
0.00446039
0.00444379
0.00442817
0.00441356
0.00439997
0.00438743
0.00437593
0.00436549
0.00435608
0.00434771
0.00434036
0.00433396
0.00432837
0.004323
0.00431622
0.00430454
1.61018e-05
0.000130831
0.000266853
0.000384296
0.000481028
0.000560373
0.000625305
0.00067912
0.000724553
0.00076382
0.000798674
0.000830479
0.000860282
0.000888868
0.000916825
0.000944651
0.000972613
0.00100091
0.00102967
0.00105899
0.0010889
0.00111957
0.00115101
0.00118318
0.00121607
0.00124963
0.00128383
0.00131859
0.00135389
0.00138967
0.00142588
0.0014625
0.00149949
0.00153681
0.00157444
0.00161236
0.00165043
0.00168874
0.00172722
0.00176585
0.0018046
0.00184349
0.0018825
0.00192165
0.00196094
0.00200037
0.00203996
0.00207969
0.00211958
0.00215963
0.00219985
0.00224024
0.00228079
0.00232152
0.00236242
0.0024035
0.00244475
0.00248619
0.0025278
0.00256958
0.00261154
0.00265367
0.00269597
0.00273843
0.00278104
0.00282381
0.00286672
0.00290977
0.00295294
0.00299623
0.00303963
0.00308312
0.0031267
0.00317035
0.00321405
0.00325779
0.00330156
0.00334535
0.00338912
0.00343288
0.00347659
0.00352025
0.00356383
0.00360732
0.00365069
0.00369393
0.00373702
0.00377995
0.00382268
0.00386522
0.00390753
0.0039496
0.00399141
0.00403294
0.00407418
0.00411511
0.0041557
0.00419595
0.00423582
0.00427531
0.00431438
0.00435302
0.0043912
0.0044289
0.00446609
0.00450275
0.00453885
0.00457436
0.00460923
0.00464345
0.00467697
0.00470975
0.00474175
0.00477292
0.00480321
0.00483259
0.00486099
0.00488836
0.00491465
0.00493981
0.00496378
0.00498651
0.00500801
0.0050282
0.00504694
0.0050642
0.00507991
0.00509404
0.00510652
0.00511712
0.00512589
0.00513286
0.00513802
0.00514137
0.00514293
0.0051427
0.00514068
0.00513691
0.00513139
0.00512418
0.00511531
0.00510484
0.00509282
0.00507933
0.00506443
0.00504821
0.00503075
0.00501214
0.00499248
0.00497188
0.00495045
0.00492831
0.00490556
0.00488236
0.00485881
0.00483506
0.00481123
0.00478747
0.00476392
0.00474071
0.00471799
0.00469587
0.0046745
0.00465399
0.00463445
0.00461597
0.00459862
0.00458246
0.00456754
0.00455392
0.00454164
0.00453073
0.00452121
0.00451312
0.00450647
0.00450127
0.00449742
0.00449448
0.00449116
0.00448511
1.69029e-05
0.000133889
0.000273482
0.000395629
0.000497299
0.000581714
0.000651518
0.000709867
0.000759435
0.000802416
0.000840571
0.000875304
0.000907713
0.000938575
0.00096844
0.000997867
0.00102724
0.00105681
0.00108676
0.00111721
0.00114827
0.00118
0.00121237
0.00124534
0.0012789
0.00131301
0.00134763
0.00138273
0.00141826
0.00145418
0.00149046
0.00152707
0.00156397
0.00160113
0.00163855
0.00167626
0.00171423
0.00175241
0.00179068
0.00182899
0.00186737
0.0019058
0.00194431
0.0019829
0.00202158
0.00206038
0.00209929
0.00213833
0.0021775
0.0022168
0.00225626
0.00229587
0.00233565
0.00237559
0.0024157
0.002456
0.00249648
0.00253716
0.00257802
0.00261909
0.00266035
0.00270181
0.00274347
0.00278533
0.00282739
0.00286964
0.00291208
0.00295471
0.00299751
0.00304048
0.00308361
0.00312689
0.00317031
0.00321385
0.00325751
0.00330127
0.00334511
0.00338902
0.00343297
0.00347696
0.00352097
0.00356496
0.00360894
0.00365287
0.00369674
0.00374052
0.0037842
0.00382776
0.00387118
0.00391444
0.00395752
0.00400041
0.00404307
0.00408551
0.00412769
0.0041696
0.00421122
0.00425254
0.00429354
0.00433419
0.00437449
0.0044144
0.00445392
0.00449301
0.00453166
0.00456984
0.00460753
0.0046447
0.00468132
0.00471735
0.00475277
0.00478753
0.00482159
0.00485491
0.00488743
0.00491911
0.0049499
0.00497973
0.00500855
0.00503631
0.00506294
0.00508839
0.00511261
0.00513554
0.00515707
0.00517723
0.00519583
0.00521282
0.00522822
0.00524154
0.00525294
0.00526245
0.00527008
0.00527582
0.00527964
0.00528156
0.00528157
0.00527967
0.00527588
0.00527024
0.00526276
0.00525351
0.00524252
0.00522986
0.0052156
0.00519981
0.00518258
0.00516399
0.00514415
0.00512316
0.00510113
0.00507818
0.00505444
0.00503005
0.00500514
0.00497985
0.00495434
0.00492875
0.00490325
0.00487798
0.00485311
0.0048288
0.0048052
0.00478247
0.00476074
0.00474015
0.00472082
0.00470285
0.00468635
0.00467141
0.00465809
0.00464648
0.00463666
0.00462867
0.0046226
0.00461848
0.00461629
0.00461569
0.00461569
0.00461476
1.74637e-05
0.00013574
0.000277697
0.000403456
0.00050921
0.000597967
0.000672063
0.000734479
0.000787797
0.000834176
0.000875281
0.000912387
0.000946802
0.000979426
0.00101099
0.00104206
0.00107288
0.00110367
0.00113463
0.00116589
0.00119753
0.00122957
0.00126206
0.00129501
0.0013284
0.00136222
0.00139644
0.00143104
0.00146597
0.00150119
0.00153668
0.00157243
0.0016084
0.00164456
0.00168087
0.00171739
0.00175413
0.00179115
0.00182829
0.00186544
0.00190259
0.00193969
0.00197678
0.00201388
0.00205104
0.00208828