/*--------------------------------*- C++ -*----------------------------------*\
| =========                 |                                                 |
| \\      /  F ield         | OpenFOAM: The Open Source CFD Toolbox           |
|  \\    /   O peration     | Version:  5.0                                   |
|   \\  /    A nd           | Web:      www.OpenFOAM.org                      |
|    \\/     M anipulation  |                                                 |
\*---------------------------------------------------------------------------*/
FoamFile
{
    version     2.0;
    format      ascii;
    class       volScalarField;
    location    "200";
    object      p;
}
// * * * * * * * * * * * * * * * * * * * * * * * * * * * * * * * * * * * * * //

dimensions      [0 2 -2 0 0 0 0];

internalField   nonuniform List<scalar> 
12225
(
-2.14946
-4.33804
-5.43801
-5.75862
-5.93987
-6.10888
-6.24041
-6.33556
-6.41218
-6.47958
-6.5396
-6.59449
-6.64429
-6.69065
-6.73381
-6.76905
-6.81274
-6.7798
-5.3129
-6.08134
-6.24176
-6.14948
-6.13692
-6.20476
-6.28229
-6.34803
-6.40765
-6.4651
-6.51974
-6.57066
-6.61856
-6.66362
-6.70678
-6.7443
-6.7876
-6.81486
-5.71404
-5.69903
-5.82634
-5.90467
-5.99953
-6.11968
-6.22689
-6.31172
-6.38355
-6.44891
-6.50904
-6.56397
-6.61516
-6.66286
-6.70859
-6.75002
-6.79723
-6.83796
-5.5921
-5.53519
-5.77675
-5.93502
-6.03672
-6.1429
-6.24057
-6.3206
-6.38934
-6.45244
-6.51102
-6.56507
-6.61572
-6.66331
-6.70926
-6.75275
-6.80009
-6.84736
-5.58176
-5.60619
-5.83421
-5.97572
-6.0593
-6.15133
-6.24252
-6.32022
-6.38776
-6.44999
-6.50812
-6.56213
-6.61296
-6.6611
-6.70781
-6.75316
-6.80101
-6.85115
-5.63972
-5.68866
-5.86289
-5.98675
-6.06823
-6.15602
-6.24403
-6.32052
-6.38747
-6.44918
-6.50697
-6.56093
-6.61186
-6.66036
-6.70755
-6.75391
-6.80188
-6.8522
-5.70005
-5.74429
-5.87943
-5.99571
-6.07941
-6.16351
-6.24739
-6.322
-6.38807
-6.44907
-6.50634
-6.56009
-6.61098
-6.65966
-6.70706
-6.75383
-6.80151
-6.85076
-5.75357
-5.79121
-5.90113
-6.00937
-6.09232
-6.17188
-6.25126
-6.32371
-6.38873
-6.44893
-6.50561
-6.55905
-6.6098
-6.6585
-6.7059
-6.75264
-6.79966
-6.84733
-5.80329
-5.83642
-5.92729
-6.0252
-6.10523
-6.18056
-6.25567
-6.32575
-6.38953
-6.44881
-6.50477
-6.55777
-6.60825
-6.65676
-6.70392
-6.75025
-6.79633
-6.84222
-5.85032
-5.87956
-5.95504
-6.0422
-6.11835
-6.18985
-6.26091
-6.32836
-6.39063
-6.44882
-6.50392
-6.55631
-6.60633
-6.65444
-6.70112
-6.74675
-6.79168
-6.83578
-5.89461
-5.92009
-5.98324
-6.06036
-6.13199
-6.19975
-6.26693
-6.33157
-6.39211
-6.44903
-6.50312
-6.55473
-6.60412
-6.65162
-6.6976
-6.74231
-6.78596
-6.82832
-5.9326
-5.95493
-6.00908
-6.07786
-6.14492
-6.20925
-6.27302
-6.33501
-6.39379
-6.44942
-6.50246
-6.5532
-6.60184
-6.64862
-6.6938
-6.73754
-6.77997
-6.82081
-5.96768
-5.98738
-6.03416
-6.09549
-6.15793
-6.21887
-6.27942
-6.33878
-6.3957
-6.44996
-6.50186
-6.55163
-6.59941
-6.64535
-6.68963
-6.73234
-6.77355
-6.81298
-6.00442
-6.0216
-6.06158
-6.11554
-6.17281
-6.22992
-6.28698
-6.34342
-6.39814
-6.45071
-6.5012
-6.54975
-6.59642
-6.64129
-6.68444
-6.72592
-6.76575
-6.8037
-6.04159
-6.05636
-6.09032
-6.13736
-6.18919
-6.24213
-6.29553
-6.3488
-6.40101
-6.45159
-6.5004
-6.54746
-6.59276
-6.6363
-6.67811
-6.71818
-6.75651
-6.79292
-6.0772
-6.08981
-6.11872
-6.15963
-6.20616
-6.25483
-6.30453
-6.35455
-6.40404
-6.45238
-6.49927
-6.5446
-6.58829
-6.63029
-6.67057
-6.7091
-6.74587
-6.78075
-6.10835
-6.11922
-6.14416
-6.18007
-6.22192
-6.26662
-6.31284
-6.35975
-6.40654
-6.45255
-6.49739
-6.54085
-6.58279
-6.62312
-6.66177
-6.6987
-6.7339
-6.7673
-6.13069
-6.14034
-6.16259
-6.19504
-6.23347
-6.27509
-6.31853
-6.36287
-6.40732
-6.45123
-6.49414
-6.5358
-6.57603
-6.61472
-6.65178
-6.68718
-6.7209
-6.75291
-6.13733
-6.14648
-6.1677
-6.19884
-6.23593
-6.2762
-6.31824
-6.36118
-6.40424
-6.44677
-6.48831
-6.5286
-6.56746
-6.6048
-6.64054
-6.67466
-6.70714
-6.73801
-6.12109
-6.13086
-6.15346
-6.18654
-6.22553
-6.26723
-6.31018
-6.3537
-6.39706
-6.43963
-6.48097
-6.52089
-6.55926
-6.59601
-6.63108
-6.6645
-6.69626
-6.72644
-6.09416
-6.10496
-6.13023
-6.16725
-6.21002
-6.25453
-6.29961
-6.34484
-6.38947
-6.43282
-6.47459
-6.51468
-6.55307
-6.58968
-6.62454
-6.65766
-6.6891
-6.71893
-6.05889
-6.07071
-6.10007
-6.14365
-6.19193
-6.23991
-6.28772
-6.33544
-6.38199
-6.42658
-6.4691
-6.50966
-6.54827
-6.58495
-6.61974
-6.65273
-6.68398
-6.7136
-6.01831
-6.03021
-6.06466
-6.11794
-6.17348
-6.22544
-6.27633
-6.32677
-6.37528
-6.42115
-6.46457
-6.50576
-6.54475
-6.58162
-6.61645
-6.64941
-6.68058
-6.71011
-5.97458
-5.98556
-6.02734
-6.09176
-6.15394
-6.21062
-6.26624
-6.3201
-6.37036
-6.41718
-6.46129
-6.50297
-6.54224
-6.57919
-6.61403
-6.64693
-6.67802
-6.70741
-5.92764
-5.93315
-5.99581
-6.07402
-6.13596
-6.19421
-6.25536
-6.31371
-6.36623
-6.41429
-6.4593
-6.50156
-6.5411
-6.57814
-6.61295
-6.64577
-6.67677
-6.70612
-5.88432
-5.848
-5.95754
-6.06851
-6.13076
-6.18605
-6.24826
-6.308
-6.36122
-6.40994
-6.45565
-6.49845
-6.53832
-6.57555
-6.61047
-6.64334
-6.67436
-6.70372
-5.89854
-5.73959
-5.86852
-6.0226
-6.1127
-6.18407
-6.253
-6.31391
-6.36671
-6.41499
-6.46027
-6.50253
-6.54181
-6.57848
-6.61285
-6.64522
-6.67583
-6.7049
-6.02173
-5.84135
-5.85552
-5.92766
-6.01603
-6.11525
-6.20595
-6.27972
-6.34142
-6.39656
-6.44687
-6.49264
-6.53444
-6.57293
-6.60862
-6.64195
-6.67339
-6.70354
-5.72911
-6.3202
-6.40903
-6.28478
-6.23045
-6.25761
-6.30459
-6.34783
-6.38939
-6.43157
-6.47306
-6.51239
-6.54935
-6.58408
-6.61664
-6.64719
-6.67594
-6.70466
-2.73978
-4.50308
-5.50778
-5.80693
-5.9561
-6.09973
-6.21377
-6.29473
-6.35895
-6.41582
-6.46708
-6.51311
-6.55479
-6.59302
-6.62831
-6.66045
-6.6893
-6.71309
-7.61225
-7.6123
-7.61281
-7.61393
-7.61551
-7.61751
-7.61989
-7.62266
-7.62583
-7.62941
-7.63344
-7.63796
-7.64301
-7.64865
-7.65491
-7.66185
-7.66957
-7.67816
-7.68764
-7.69811
-7.70961
-7.7219
-7.73462
-7.74759
-7.76026
-7.77259
-7.78586
-7.80194
-7.82139
-7.84278
-7.86489
-7.8875
-7.91033
-7.93463
-7.95893
-7.98075
-8.00079
-8.02262
-8.04712
-8.07251
-8.09875
-8.12564
-8.15304
-8.18084
-8.20892
-8.23722
-8.26562
-8.29407
-8.32246
-8.35074
-8.3788
-8.40658
-8.43396
-8.46088
-8.4872
-8.51286
-8.53771
-8.56168
-8.58459
-8.60637
-8.62683
-8.64588
-8.66331
-8.67901
-8.69279
-8.70451
-8.71395
-8.72098
-8.72535
-8.72692
-8.72545
-8.72076
-8.71261
-8.70083
-8.68515
-8.66541
-8.64133
-8.61273
-8.57933
-8.54096
-8.49734
-8.4483
-8.39356
-8.33296
-8.26623
-8.1932
-8.11363
-8.02735
-7.93419
-7.83408
-7.72703
-7.61305
-7.49194
-7.36317
-7.22636
-7.08154
-6.92882
-6.76824
-6.59982
-6.42359
-6.2396
-6.04789
-5.84857
-5.64176
-5.42762
-5.20632
-4.97809
-4.74317
-4.50184
-4.2544
-4.00117
-3.74253
-3.47884
-3.21051
-2.93797
-2.66168
-2.38209
-2.09969
-1.81494
-1.52831
-1.24027
-0.951336
-0.662007
-0.372792
-0.0841687
0.203428
0.489565
0.773816
1.05578
1.33509
1.61138
1.88433
2.15366
2.41909
2.68043
2.93747
3.1901
3.43822
3.68181
3.92081
4.15519
4.38499
4.61029
4.83125
5.04802
5.2608
5.4698
5.67529
5.87755
6.07687
6.2736
6.46809
6.6607
6.85184
7.04193
7.23138
7.42065
7.6102
7.80046
7.99192
8.18502
8.38021
8.57793
8.77856
8.9825
9.19022
9.40187
9.61719
9.83593
10.0582
10.284
10.5132
10.7453
10.9799
11.2163
11.4538
11.6928
11.9325
12.1856
12.4412
-7.61
-7.61054
-7.61135
-7.61224
-7.61307
-7.61396
-7.61515
-7.61677
-7.61889
-7.62154
-7.62473
-7.62847
-7.63277
-7.63765
-7.64314
-7.64927
-7.65607
-7.66355
-7.67166
-7.68045
-7.68975
-7.6994
-7.70976
-7.72098
-7.73323
-7.74732
-7.76367
-7.78093
-7.79708
-7.81238
-7.82819
-7.84504
-7.86448
-7.88596
-7.90917
-7.93563
-7.96548
-7.99521
-8.02242
-8.04927
-8.07621
-8.10341
-8.13088
-8.15861
-8.18654
-8.21463
-8.24281
-8.27101
-8.29916
-8.3272
-8.35503
-8.38259
-8.40978
-8.43652
-8.46271
-8.48825
-8.51302
-8.53693
-8.55983
-8.58163
-8.60216
-8.6213
-8.63889
-8.65478
-8.66881
-8.68081
-8.6906
-8.69801
-8.70284
-8.7049
-8.70399
-8.69992
-8.69245
-8.6814
-8.66654
-8.64766
-8.62452
-8.59691
-8.56459
-8.52736
-8.48498
-8.43723
-8.38389
-8.32476
-8.25962
-8.18826
-8.11047
-8.02608
-7.93488
-7.83673
-7.73147
-7.61887
-7.49868
-7.37087
-7.23556
-7.09264
-6.942
-6.78358
-6.61736
-6.44334
-6.26156
-6.07208
-5.87499
-5.6704
-5.45844
-5.23931
-5.01321
-4.78037
-4.54105
-4.29556
-4.04421
-3.78735
-3.52535
-3.25862
-2.98757
-2.71264
-2.4343
-2.15301
-1.86924
-1.58346
-1.29615
-1.0078
-0.718931
-0.430023
-0.141571
0.145989
0.43222
0.716702
0.999025
1.27881
1.5557
1.82937
2.0995
2.36586
2.62819
2.88631
3.14007
3.3894
3.63422
3.87448
4.11014
4.34122
4.56779
4.79001
5.008
5.22196
5.4321
5.63866
5.84191
6.04217
6.23973
6.43496
6.62821
6.81989
7.01039
7.20015
7.38959
7.57918
7.76935
7.96058
8.15329
8.34798
8.54509
8.74501
8.94806
9.15465
9.36492
9.57865
9.79577
10.0164
10.2406
10.4682
10.6989
10.9321
11.1675
11.4045
11.6438
11.8845
12.1408
12.389
-7.60395
-7.6056
-7.60792
-7.6097
-7.61078
-7.61161
-7.61255
-7.61383
-7.61556
-7.61782
-7.62062
-7.62399
-7.62794
-7.6325
-7.63767
-7.6435
-7.65001
-7.65719
-7.66503
-7.6735
-7.68253
-7.69208
-7.70223
-7.71325
-7.72554
-7.73965
-7.75573
-7.77317
-7.79094
-7.80877
-7.82695
-7.84561
-7.86495
-7.8849
-7.90571
-7.92843
-7.95325
-7.97916
-8.00512
-8.03131
-8.05777
-8.08451
-8.11151
-8.13873
-8.16613
-8.19367
-8.2213
-8.24895
-8.27657
-8.30408
-8.33142
-8.3585
-8.38525
-8.41157
-8.43738
-8.46257
-8.48704
-8.51067
-8.53335
-8.55496
-8.57536
-8.59441
-8.61196
-8.62787
-8.64197
-8.6541
-8.66408
-8.67174
-8.67689
-8.67933
-8.67887
-8.67531
-8.66844
-8.65806
-8.64394
-8.62588
-8.60364
-8.57702
-8.54577
-8.50969
-8.46854
-8.42211
-8.37018
-8.31254
-8.24898
-8.17929
-8.10327
-8.02074
-7.9315
-7.83541
-7.73229
-7.6219
-7.50401
-7.37855
-7.24556
-7.105
-6.95679
-6.80086
-6.63719
-6.46576
-6.28659
-6.09973
-5.90526
-5.70329
-5.49395
-5.27741
-5.05387
-4.82354
-4.5867
-4.34361
-4.09459
-3.83997
-3.58013
-3.31546
-3.04635
-2.77324
-2.4966
-2.21687
-1.93452
-1.65002
-1.36385
-1.07651
-0.788499
-0.500285
-0.212359
0.0748175
0.360808
0.645202
0.927586
1.20758
1.48482
1.75897
2.02971
2.29679
2.55994
2.81898
3.07375
3.32415
3.5701
3.81152
4.04838
4.28067
4.50848
4.73189
4.95107
5.16616
5.37738
5.58495
5.78913
5.9902
6.18849
6.38431
6.57804
6.77003
6.96071
7.15047
7.33975
7.52898
7.71861
7.90912
8.10095
8.29452
8.49034
8.68884
8.89037
9.09525
9.30365
9.51552
9.73084
9.94974
10.1722
10.3982
10.6273
10.8593
11.0938
11.3305
11.5705
11.8121
12.0711
12.3055
-7.59478
-7.59769
-7.60211
-7.60551
-7.60764
-7.60914
-7.61048
-7.61191
-7.61363
-7.61575
-7.61836
-7.6215
-7.6252
-7.62949
-7.63437
-7.63989
-7.64605
-7.65289
-7.66039
-7.66857
-7.67741
-7.68693
-7.69716
-7.70824
-7.72038
-7.73385
-7.74876
-7.76498
-7.78221
-7.8003
-7.81923
-7.83897
-7.8594
-7.88037
-7.90189
-7.92427
-7.94766
-7.97189
-7.9967
-8.02201
-8.04775
-8.07385
-8.10027
-8.12695
-8.15384
-8.18088
-8.20803
-8.23523
-8.26241
-8.28951
-8.31646
-8.34319
-8.36961
-8.39565
-8.4212
-8.44617
-8.47045
-8.49395
-8.51653
-8.53807
-8.55845
-8.57753
-8.59515
-8.61118
-8.62544
-8.63778
-8.64803
-8.656
-8.66151
-8.66437
-8.66438
-8.66135
-8.65507
-8.64532
-8.6319
-8.6146
-8.59317
-8.56742
-8.53711
-8.50202
-8.46193
-8.41661
-8.36586
-8.30944
-8.24716
-8.17879
-8.10416
-8.02305
-7.93527
-7.84067
-7.73908
-7.63028
-7.51411
-7.39047
-7.25933
-7.12063
-6.97429
-6.82027
-6.65851
-6.48903
-6.31182
-6.12692
-5.93442
-5.73441
-5.52702
-5.31241
-5.09076
-4.8623
-4.62727
-4.38595
-4.13863
-3.88566
-3.62738
-3.36419
-3.09648
-2.82469
-2.54925
-2.27063
-1.98928
-1.70567
-1.42028
-1.13362
-0.846194
-0.558445
-0.270843
0.0161219
0.302012
0.586417
0.868933
1.14917
1.42676
1.70136
1.97266
2.24038
2.50426
2.76412
3.01978
3.27112
3.51806
3.7605
3.9984
4.23177
4.46067
4.68518
4.90544
5.12159
5.33384
5.54238
5.74748
5.9494
6.14846
6.34495
6.53926
6.73171
6.92271
7.11266
7.30199
7.49111
7.68044
7.87046
8.06164
8.25439
8.44915
8.64632
8.84624
9.04926
9.25558
9.46531
9.67853
9.89534
10.1157
10.3397
10.5669
10.7971
11.0301
11.2656
11.5048
11.7451
12.0017
12.2215
-7.58489
-7.58909
-7.59579
-7.60103
-7.60448
-7.60697
-7.60904
-7.61099
-7.61305
-7.61538
-7.61812
-7.62132
-7.62505
-7.62935
-7.63425
-7.63977
-7.64593
-7.65277
-7.6603
-7.66855
-7.67752
-7.68727
-7.69783
-7.70931
-7.72178
-7.73535
-7.75005
-7.76585
-7.78264
-7.80038
-7.81904
-7.8386
-7.85898
-7.88009
-7.90186
-7.92431
-7.94742
-7.97115
-7.9954
-8.02014
-8.04532
-8.07089
-8.0968
-8.123
-8.14943
-8.17605
-8.2028
-8.22962
-8.25645
-8.28323
-8.30988
-8.33634
-8.36252
-8.38834
-8.41371
-8.43853
-8.4627
-8.48611
-8.50865
-8.53018
-8.55059
-8.56973
-8.58745
-8.60361
-8.61805
-8.63061
-8.64111
-8.64937
-8.65521
-8.65845
-8.65888
-8.6563
-8.65051
-8.64131
-8.62847
-8.61178
-8.59103
-8.56598
-8.53641
-8.50211
-8.46285
-8.41841
-8.36856
-8.31308
-8.25178
-8.18443
-8.11083
-8.03079
-7.94411
-7.85063
-7.75017
-7.64257
-7.52766
-7.40533
-7.27551
-7.13812
-6.99309
-6.84037
-6.67993
-6.51174
-6.33582
-6.15221
-5.96098
-5.76222
-5.55606
-5.34264
-5.12217
-4.89483
-4.66089
-4.4206
-4.17427
-3.92223
-3.66483
-3.40244
-3.13549
-2.86438
-2.58956
-2.31148
-2.0306
-1.74739
-1.46234
-1.17595
-0.888731
-0.601132
-0.3136
-0.026628
0.259338
0.543882
0.826608
1.10711
1.38503
1.66001
1.93175
2.19994
2.46436
2.72477
2.98103
3.23299
3.48055
3.72362
3.96215
4.19617
4.42569
4.65085
4.8717
5.08845
5.30124
5.51031
5.71587
5.91823
6.11764
6.31445
6.50898
6.70161
6.89268
7.0826
7.27178
7.46066
7.64964
7.83918
8.02969
8.22161
8.41537
8.61137
8.80993
9.0114
9.21601
9.42395
9.63536
9.85039
10.069
10.2912
10.5167
10.7454
10.977
11.2111
11.4487
11.6866
11.9386
12.1452
-7.57625
-7.58166
-7.59032
-7.59727
-7.60204
-7.60561
-7.60856
-7.61122
-7.61383
-7.6166
-7.61969
-7.62318
-7.62717
-7.6317
-7.63682
-7.64256
-7.64897
-7.65606
-7.66387
-7.67241
-7.68172
-7.69183
-7.70279
-7.71466
-7.72749
-7.74132
-7.75615
-7.77198
-7.78872
-7.80635
-7.82483
-7.84412
-7.8642
-7.88501
-7.9065
-7.92866
-7.95143
-7.97477
-7.99862
-8.02294
-8.04769
-8.07285
-8.09835
-8.12416
-8.15022
-8.1765
-8.20292
-8.22945
-8.25601
-8.28254
-8.30898
-8.33525
-8.36128
-8.38697
-8.41224
-8.437
-8.46113
-8.48453
-8.50709
-8.52868
-8.54917
-8.56843
-8.5863
-8.60264
-8.61729
-8.63009
-8.64085
-8.64942
-8.65559
-8.65919
-8.66001
-8.65785
-8.65252
-8.64379
-8.63146
-8.61531
-8.59512
-8.57066
-8.54172
-8.50806
-8.46947
-8.42572
-8.37659
-8.32186
-8.26131
-8.19475
-8.12195
-8.04272
-7.95687
-7.86422
-7.76462
-7.65789
-7.54387
-7.42245
-7.29354
-7.15705
-7.01291
-6.86106
-6.70147
-6.53412
-6.35901
-6.1762
-5.98573
-5.78771
-5.58226
-5.36952
-5.14968
-4.92294
-4.68955
-4.44977
-4.20391
-3.95228
-3.69525
-3.43318
-3.16649
-2.8956
-2.62095
-2.34299
-2.06218
-1.779
-1.49394
-1.20751
-0.920217
-0.632518
-0.344858
-0.0577085
0.228468
0.513258
0.796252
1.07705
1.35529
1.6306
1.90268
2.17122
2.43599
2.69677
2.95338
3.20568
3.45355
3.69691
3.9357
4.16995
4.3997
4.62503
4.84604
5.06289
5.27574
5.48482
5.69035
5.89263
6.0919
6.28851
6.48276
6.67504
6.8657
7.05515
7.24378
7.43202
7.62027
7.809
7.99861
8.18955
8.38223
8.57705
8.77436
8.97448
9.17768
9.38416
9.59414
9.80776
10.025
10.2459
10.4702
10.6978
10.9282
11.1611
11.3971
11.6324
11.8798
12.0751
-7.57025
-7.57666
-7.58681
-7.59513
-7.60108
-7.60568
-7.60951
-7.61292
-7.61617
-7.61949
-7.62305
-7.62697
-7.63134
-7.63623
-7.6417
-7.64779
-7.65454
-7.66198
-7.67015
-7.67907
-7.68876
-7.69926
-7.71059
-7.72279
-7.73589
-7.74991
-7.76485
-7.78071
-7.79744
-7.81501
-7.83338
-7.85251
-7.87238
-7.89295
-7.91418
-7.93605
-7.95851
-7.98152
-8.00504
-8.02904
-8.05347
-8.07831
-8.1035
-8.12902
-8.15482
-8.18084
-8.20704
-8.23336
-8.25974
-8.28613
-8.31244
-8.33862
-8.36458
-8.39023
-8.41549
-8.44026
-8.46443
-8.48791
-8.51056
-8.53227
-8.55291
-8.57233
-8.5904
-8.60696
-8.62186
-8.63492
-8.64597
-8.65485
-8.66135
-8.6653
-8.66649
-8.66472
-8.6598
-8.6515
-8.63961
-8.62392
-8.6042
-8.58024
-8.5518
-8.51867
-8.48061
-8.4374
-8.38883
-8.33466
-8.27469
-8.20871
-8.1365
-8.05786
-7.9726
-7.88055
-7.78155
-7.67541
-7.562
-7.44118
-7.31286
-7.17694
-7.03335
-6.88202
-6.72293
-6.55605
-6.38139
-6.19899
-6.00891
-5.81125
-5.60611
-5.39366
-5.17406
-4.94753
-4.7143
-4.47464
-4.22886
-3.97727
-3.72023
-3.45812
-3.19135
-2.92035
-2.64554
-2.36739
-2.08637
-1.80295
-1.51764
-1.23095
-0.943376
-0.655397
-0.367463
-0.0800214
0.206462
0.491571
0.774883
1.05601
1.33455
1.61018
1.88254
2.15136
2.41638
2.67738
2.93419
3.18665
3.43464
3.67806
3.9169
4.15112
4.38082
4.60603
4.8269
5.04353
5.25612
5.46486
5.67001
5.87181
6.07057
6.26657
6.46019
6.65173
6.8416
7.03017
7.21788
7.40511
7.59231
7.77991
7.96836
8.15807
8.3495
8.54302
8.739
8.93778
9.13964
9.34481
9.55353
9.76595
9.98212
10.202
10.4253
10.652
10.8816
11.1135
11.348
11.5807
11.8241
12.01
-7.56768
-7.57476
-7.58588
-7.5952
-7.60208
-7.60754
-7.61216
-7.61628
-7.62017
-7.62406
-7.62813
-7.63252
-7.63732
-7.64262
-7.64848
-7.65496
-7.66208
-7.6699
-7.67843
-7.6877
-7.69775
-7.70858
-7.72023
-7.7327
-7.74602
-7.7602
-7.77522
-7.7911
-7.80779
-7.82529
-7.84355
-7.86255
-7.88225
-7.90263
-7.92366
-7.9453
-7.96753
-7.9903
-8.01358
-8.03735
-8.06155
-8.08617
-8.11117
-8.1365
-8.16212
-8.188
-8.21407
-8.24029
-8.26659
-8.29292
-8.31921
-8.34538
-8.37136
-8.39706
-8.42239
-8.44725
-8.47154
-8.49515
-8.51797
-8.53986
-8.56069
-8.58033
-8.59864
-8.61545
-8.63061
-8.64395
-8.6553
-8.66448
-8.67131
-8.67559
-8.67712
-8.67571
-8.67115
-8.66322
-8.65171
-8.63641
-8.61708
-8.59351
-8.56548
-8.53275
-8.4951
-8.4523
-8.40414
-8.35038
-8.29082
-8.22524
-8.15343
-8.07519
-7.99032
-7.89865
-7.80001
-7.69424
-7.58118
-7.46071
-7.33271
-7.19709
-7.05377
-6.90268
-6.7438
-6.5771
-6.40259
-6.22031
-6.03031
-5.83269
-5.62757
-5.41509
-5.19543
-4.96879
-4.73542
-4.49559
-4.24959
-3.99775
-3.74042
-3.47801
-3.2109
-2.93953
-2.66433
-2.38577
-2.10433
-1.8205
-1.53478
-1.24767
-0.959684
-0.67131
-0.383011
-0.0952179
0.191622
0.477072
0.760719
1.04215
1.32099
1.59687
1.86945
2.13847
2.40365
2.66477
2.92165
3.17412
3.42208
3.66542
3.90413
4.13818
4.36765
4.59257
4.81308
5.02929
5.2414
5.44959
5.65413
5.85525
6.05326
6.24844
6.44116
6.63174
6.82059
7.00808
7.19463
7.38065
7.56659
7.75288
7.93998
8.12832
8.31833
8.51043
8.705
8.90238
9.10288
9.30677
9.51428
9.72559
9.94073
10.1597
10.3822
10.6081
10.8369
11.0678
11.3009
11.5313
11.7713
11.9497
-7.56875
-7.57619
-7.58778
-7.59767
-7.6052
-7.61132
-7.61658
-7.62129
-7.62574
-7.63015
-7.6347
-7.63953
-7.64475
-7.65045
-7.65669
-7.66352
-7.67098
-7.67913
-7.68797
-7.69755
-7.70787
-7.71897
-7.73085
-7.74353
-7.75701
-7.7713
-7.78639
-7.80228
-7.81895
-7.83638
-7.85454
-7.87342
-7.89299
-7.91323
-7.9341
-7.95559
-7.97765
-8.00027
-8.02339
-8.04701
-8.07108
-8.09558
-8.12047
-8.14571
-8.17126
-8.19708
-8.22312
-8.24933
-8.27565
-8.30202
-8.32836
-8.35462
-8.38069
-8.40651
-8.43198
-8.45701
-8.48148
-8.50528
-8.5283
-8.55042
-8.57149
-8.59138
-8.60994
-8.62702
-8.64246
-8.65608
-8.66772
-8.6772
-8.68432
-8.6889
-8.69074
-8.68964
-8.68538
-8.67776
-8.66656
-8.65156
-8.63254
-8.60927
-8.58153
-8.54909
-8.51173
-8.46921
-8.42132
-8.36783
-8.30852
-8.24319
-8.17161
-8.0936
-8.00893
-7.91746
-7.819
-7.71339
-7.60048
-7.48013
-7.35222
-7.21667
-7.07339
-6.92232
-6.76341
-6.59665
-6.42205
-6.23964
-6.04948
-5.85166
-5.64631
-5.43355
-5.21358
-4.9866
-4.75286
-4.51261
-4.26617
-4.01385
-3.75604
-3.4931
-3.22547
-2.95354
-2.67779
-2.39866
-2.11667
-1.8323
-1.54606
-1.25845
-0.969986
-0.681161
-0.39246
-0.104298
0.182892
0.468666
0.752617
1.03431
1.31337
1.58942
1.86214
2.13124
2.39647
2.65759
2.91441
3.16676
3.41452
3.65764
3.89604
4.12975
4.35878
4.58324
4.80319
5.01881
5.23023
5.4377
5.64142
5.84169
6.03875
6.23296
6.42461
6.6141
6.80178
6.98805
7.17333
7.35804
7.54262
7.72752
7.91319
8.10009
8.28864
8.4793
8.67244
8.86843
9.06762
9.27027
9.47665
9.68693
9.90116
10.1193
10.3411
10.5663
10.7944
11.0244
11.2562
11.4844
11.7217
11.8942
-7.57332
-7.58082
-7.59241
-7.60249
-7.61038
-7.61691
-7.62262
-7.62778
-7.63267
-7.63749
-7.64244
-7.64764
-7.65321
-7.65923
-7.66577
-7.67289
-7.68063
-7.68903
-7.69812
-7.70792
-7.71845
-7.72973
-7.74176
-7.75457
-7.76815
-7.78251
-7.79764
-7.81353
-7.83017
-7.84755
-7.86565
-7.88445
-7.90393
-7.92407
-7.94484
-7.96623
-7.9882
-8.01073
-8.03378
-8.05734
-8.08136
-8.10583
-8.13069
-8.15594
-8.18151
-8.20737
-8.23347
-8.25975
-8.28616
-8.31264
-8.33912
-8.36552
-8.39177
-8.41777
-8.44344
-8.46867
-8.49336
-8.5174
-8.54066
-8.56302
-8.58434
-8.60449
-8.62331
-8.64065
-8.65635
-8.67024
-8.68214
-8.69187
-8.69925
-8.70409
-8.70617
-8.70531
-8.70128
-8.69389
-8.68291
-8.66812
-8.64931
-8.62623
-8.59868
-8.56642
-8.52922
-8.48685
-8.4391
-8.38574
-8.32655
-8.26131
-8.18982
-8.11187
-8.02726
-7.93581
-7.83737
-7.73175
-7.6188
-7.49839
-7.3704
-7.23473
-7.0913
-6.94004
-6.78092
-6.61391
-6.43903
-6.2563
-6.06579
-5.86758
-5.6618
-5.44859
-5.22812
-5.00062
-4.76632
-4.52549
-4.27843
-4.02549
-3.76703
-3.50344
-3.23512
-2.96252
-2.6861
-2.40632
-2.12369
-1.83871
-1.5519
-1.26375
-0.974774
-0.685493
-0.396386
-0.107867
0.17963
0.465681
0.749877
1.03178
1.31099
1.58714
1.85989
2.12898
2.39413
2.65512
2.91172
3.16379
3.41121
3.65391
3.89184
4.125
4.35342
4.5772
4.79641
5.01121
5.22177
5.42832
5.63106
5.83029
6.02627
6.21934
6.40981
6.59807
6.78447
6.96943
7.15336
7.33668
7.51985
7.70332
7.88754
8.07297
8.26008
8.4493
8.64105
8.83571
9.03364
9.23513
9.44047
9.6498
9.86323
10.0806
10.3019
10.5264
10.7539
10.9831
11.2136
11.44
11.675
11.843
-7.58098
-7.58827
-7.59946
-7.60939
-7.61734
-7.62406
-7.63
-7.63544
-7.64061
-7.64572
-7.65094
-7.65641
-7.66222
-7.66848
-7.67524
-7.68256
-7.69048
-7.69905
-7.70828
-7.71822
-7.72887
-7.74025
-7.75237
-7.76524
-7.77887
-7.79325
-7.80839
-7.82427
-7.84089
-7.85824
-7.87629
-7.89505
-7.91448
-7.93457
-7.95531
-7.97666
-7.99861
-8.02112
-8.04418
-8.06775
-8.0918
-8.11631
-8.14124
-8.16657
-8.19223
-8.21821
-8.24443
-8.27087
-8.29744
-8.32409
-8.35076
-8.37736
-8.40382
-8.43004
-8.45593
-8.4814
-8.50633
-8.53061
-8.55411
-8.57671
-8.59827
-8.61866
-8.63771
-8.65528
-8.67119
-8.68529
-8.69739
-8.70732
-8.71488
-8.71989
-8.72214
-8.72143
-8.71754
-8.71028
-8.69942
-8.68473
-8.66601
-8.64302
-8.61553
-8.58332
-8.54616
-8.50382
-8.45609
-8.40272
-8.34351
-8.27824
-8.20669
-8.12867
-8.04396
-7.9524
-7.85383
-7.74805
-7.63492
-7.5143
-7.38608
-7.25014
-7.10642
-6.95483
-6.79535
-6.62794
-6.45263
-6.26944
-6.07843
-5.8797
-5.67335
-5.45955
-5.23846
-5.01031
-4.77533
-4.5338
-4.28603
-4.03236
-3.77316
-3.50882
-3.23976
-2.96642
-2.68926
-2.40878
-2.12549
-1.83989
-1.55248
-1.26378
-0.974307
-0.684584
-0.395081
-0.106231
0.181534
0.467804
0.75217
1.0342
1.31346
1.5896
1.86228
2.13122
2.39614
2.6568
2.91302
3.16462
3.41151
3.65358
3.89084
4.12324
4.35086
4.57374
4.79202
5.00581
5.21533
5.42075
5.62236
5.82038
6.01513
6.20691
6.39609
6.58299
6.76802
6.95158
7.13409
7.31598
7.4977
7.67971
7.86249
8.04649
8.23219
8.42004
8.61047
8.80389
9.00066
9.20112
9.40552
9.61406
9.82678
10.0436
10.2643
10.4884
10.7153
10.9438
11.1733
11.3981
11.6311
11.7959
-7.59113
-7.598
-7.60849
-7.61797
-7.62572
-7.63239
-7.63837
-7.64389
-7.64918
-7.65443
-7.65979
-7.66539
-7.67133
-7.67769
-7.68455
-7.69196
-7.69997
-7.7086
-7.7179
-7.72788
-7.73857
-7.74998
-7.76213
-7.77502
-7.78865
-7.80304
-7.81817
-7.83405
-7.85065
-7.86799
-7.88603
-7.90478
-7.9242
-7.9443
-7.96504
-7.98641
-8.00838
-8.03095
-8.05407
-8.07772
-8.10187
-8.1265
-8.15157
-8.17703
-8.20286
-8.229
-8.25541
-8.28203
-8.3088
-8.33567
-8.36254
-8.38937
-8.41604
-8.44249
-8.46861
-8.4943
-8.51944
-8.54393
-8.56764
-8.59044
-8.61218
-8.63274
-8.65196
-8.66967
-8.68573
-8.69995
-8.71216
-8.72218
-8.72983
-8.7349
-8.7372
-8.73652
-8.73267
-8.72541
-8.71455
-8.69985
-8.68109
-8.65805
-8.63051
-8.59823
-8.56098
-8.51855
-8.47069
-8.4172
-8.35785
-8.29241
-8.22069
-8.14247
-8.05756
-7.96577
-7.86694
-7.76089
-7.64747
-7.52653
-7.39796
-7.26165
-7.11751
-6.96549
-6.80554
-6.63764
-6.4618
-6.27806
-6.08647
-5.88711
-5.68013
-5.46565
-5.24387
-5.01499
-4.77928
-4.537
-4.28847
-4.03403
-3.77405
-3.50893
-3.23909
-2.96499
-2.68709
-2.40591
-2.12194
-1.83571
-1.54771
-1.25848
-0.968543
-0.678407
-0.388548
-0.0994273
0.188524
0.474905
0.759324
1.04134
1.32052
1.5965
1.86894
2.13754
2.40205
2.66222
2.91785
3.16879
3.41494
3.65622
3.8926
4.12406
4.35067
4.57248
4.78963
5.00225
5.21054
5.4147
5.61499
5.81167
6.00504
6.19542
6.38316
6.56862
6.7522
6.93428
7.11532
7.29573
7.47598
7.65654
7.83787
8.02047
8.2048
8.39134
8.58053
8.7728
8.96852
9.16805
9.37164
9.57949
9.79165
10.008
10.2283
10.4521
10.6785
10.9064
11.135
11.3585
11.59
11.7525
-7.60312
-7.60943
-7.61899
-7.62777
-7.63511
-7.64151
-7.64732
-7.65275
-7.65798
-7.66319
-7.66853
-7.67411
-7.68004
-7.68639
-7.69323
-7.70062
-7.7086
-7.71721
-7.72648
-7.73645
-7.74711
-7.75851
-7.77064
-7.78351
-7.79713
-7.81151
-7.82663
-7.8425
-7.85911
-7.87645
-7.89451
-7.91327
-7.93272
-7.95285
-7.97363
-7.99505
-8.0171
-8.03976
-8.06299
-8.08678
-8.11108
-8.13588
-8.16112
-8.18677
-8.21278
-8.23911
-8.26571
-8.29253
-8.3195
-8.34656
-8.37364
-8.40065
-8.42752
-8.45415
-8.48043
-8.50628
-8.53157
-8.55619
-8.58001
-8.60291
-8.62474
-8.64537
-8.66463
-8.68237
-8.69844
-8.71266
-8.72485
-8.73483
-8.74242
-8.74742
-8.74964
-8.74886
-8.74489
-8.73751
-8.72651
-8.71166
-8.69274
-8.66953
-8.6418
-8.60932
-8.57187
-8.52922
-8.48114
-8.42741
-8.3678
-8.3021
-8.23011
-8.1516
-8.06637
-7.97427
-7.8751
-7.7687
-7.6549
-7.53357
-7.40457
-7.26783
-7.12323
-6.97073
-6.81026
-6.64183
-6.46543
-6.2811
-6.08889
-5.8889
-5.68124
-5.46608
-5.24358
-5.01398
-4.77752
-4.53447
-4.28516
-4.02993
-3.76917
-3.50326
-3.23266
-2.95779
-2.67918
-2.39731
-2.11271
-1.82589
-1.53738
-1.2477
-0.957376
-0.666914
-0.376812
-0.0875508
0.200443
0.486779
0.771086
1.05292
1.33185
1.60747
1.87948
2.14757
2.41145
2.67092
2.92576
3.17585
3.42106
3.66134
3.89663
4.12697
4.35236
4.57293
4.78876
5.00004
5.20692
5.40967
5.6085
5.80371
5.99558
6.18445
6.37067
6.55461
6.73665
6.91722
7.09674
7.27566
7.45445
7.63357
7.81351
7.99476
8.1778
8.36312
8.55119
8.74242
8.93723
9.13597
9.3389
9.54621
9.75796
9.97401
10.1941
10.4176
10.6437
10.8711
11.099
11.3214
11.5516
11.7127
-7.61634
-7.62198
-7.63046
-7.63838
-7.64511
-7.65105
-7.65649
-7.66162
-7.6666
-7.6716
-7.67675
-7.68216
-7.68793
-7.69414
-7.70084
-7.70811
-7.71599
-7.7245
-7.73369
-7.74357
-7.75417
-7.7655
-7.77758
-7.79042
-7.804
-7.81835
-7.83345
-7.84931
-7.86591
-7.88325
-7.90132
-7.92011
-7.93959
-7.95977
-7.98063
-8.00214
-8.02431
-8.04709
-8.07047
-8.09441
-8.11888
-8.14385
-8.16925
-8.19507
-8.22125
-8.24774
-8.27449
-8.30145
-8.32855
-8.35574
-8.38293
-8.41005
-8.43701
-8.4637
-8.49004
-8.51592
-8.54122
-8.56583
-8.58962
-8.61246
-8.63421
-8.65474
-8.67388
-8.69149
-8.7074
-8.72145
-8.73345
-8.74323
-8.7506
-8.75537
-8.75735
-8.75632
-8.75209
-8.74445
-8.73317
-8.71804
-8.69884
-8.67534
-8.64732
-8.61455
-8.5768
-8.53385
-8.48546
-8.43142
-8.37149
-8.30547
-8.23314
-8.1543
-8.06874
-7.97627
-7.87674
-7.76995
-7.65576
-7.534
-7.40458
-7.26738
-7.12231
-6.96932
-6.80834
-6.63938
-6.46242
-6.2775
-6.08468
-5.88406
-5.67575
-5.45991
-5.23673
-5.00641
-4.76922
-4.52544
-4.27539
-4.01943
-3.75792
-3.49129
-3.21997
-2.94443
-2.66518
-2.38272
-2.09758
-1.81029
-1.52137
-1.23136
-0.940776
-0.650125
-0.359944
-0.070711
0.217149
0.503261
0.787255
1.06871
1.34717
1.62225
1.89361
2.16095
2.42401
2.68255
2.9364
3.18541
3.42948
3.66855
3.90258
4.13157
4.35559
4.57472
4.78908
4.99884
5.2042
5.40538
5.60263
5.79625
5.98653
6.1738
6.35843
6.54079
6.72127
6.90029
7.0783
7.25574
7.43308
7.6108
7.78941
7.96938
8.15122
8.33543
8.52248
8.71281
8.90685
9.10493
9.30735
9.51426
9.72572
9.94158
10.1615
10.3849
10.6108
10.8379
11.0653
11.2867
11.5159
11.6764
-7.63024
-7.63515
-7.64249
-7.64942
-7.65538
-7.66066
-7.66554
-7.67016
-7.6747
-7.67929
-7.68407
-7.68916
-7.69463
-7.70057
-7.70704
-7.7141
-7.72178
-7.73012
-7.73915
-7.7489
-7.75938
-7.77061
-7.78259
-7.79534
-7.80886
-7.82315
-7.83821
-7.85404
-7.87062
-7.88796
-7.90604
-7.92485
-7.94439
-7.96464
-7.98557
-8.00719
-8.02945
-8.05234
-8.07583
-8.09987
-8.12444
-8.1495
-8.17499
-8.20087
-8.2271
-8.25363
-8.2804
-8.30737
-8.33447
-8.36163
-8.38878
-8.41583
-8.44269
-8.46927
-8.49547
-8.52118
-8.54629
-8.57068
-8.59424
-8.61682
-8.6383
-8.65853
-8.67736
-8.69465
-8.71022
-8.72391
-8.73556
-8.74497
-8.75197
-8.75636
-8.75796
-8.75655
-8.75194
-8.74392
-8.73226
-8.71676
-8.69719
-8.67332
-8.64494
-8.61181
-8.5737
-8.5304
-8.48166
-8.42727
-8.367
-8.30063
-8.22798
-8.14879
-8.06288
-7.97006
-7.87017
-7.76301
-7.64844
-7.5263
-7.39647
-7.25885
-7.11335
-6.9599
-6.79847
-6.62901
-6.45155
-6.2661
-6.07274
-5.87156
-5.66267
-5.44623
-5.22243
-4.9915
-4.75367
-4.50925
-4.25856
-4.00196
-3.73982
-3.47258
-3.20068
-2.9246
-2.64485
-2.36197
-2.07645
-1.78885
-1.4997
-1.20952
-0.918834
-0.628201
-0.338145
-0.0491476
0.238372
0.524043
0.807499
1.08834
1.3661
1.6404
1.91089
2.17725
2.43925
2.69664
2.94928
3.197
3.43973
3.67738
3.90995
4.13743
4.3599
4.57742
4.79017
4.99828
5.20198
5.40148
5.59707
5.78901
5.97763
6.16326
6.34627
6.52702
6.70593
6.88342
7.05994
7.23594
7.4119
7.5883
7.76565
7.94446
8.12522
8.30845
8.49463
8.68421
8.87761
9.0752
9.27725
9.48392
9.69524
9.91106
10.131
10.3543
10.5802
10.807
11.034
11.2549
11.4832
11.6436
-7.64494
-7.64914
-7.65533
-7.66119
-7.66619
-7.6706
-7.67466
-7.67852
-7.68235
-7.68631
-7.69051
-7.69507
-7.70007
-7.70559
-7.71168
-7.71839
-7.72577
-7.73384
-7.74262
-7.75215
-7.76243
-7.77347
-7.78529
-7.79789
-7.81128
-7.82545
-7.84041
-7.85615
-7.87266
-7.88994
-7.90797
-7.92675
-7.94626
-7.9665
-7.98743
-8.00904
-8.03128
-8.05414
-8.07757
-8.10155
-8.12603
-8.15099
-8.17636
-8.20211
-8.22818
-8.25454
-8.28111
-8.30786
-8.33472
-8.36162
-8.38847
-8.4152
-8.44171
-8.46792
-8.49372
-8.51901
-8.54368
-8.56762
-8.5907
-8.6128
-8.63377
-8.6535
-8.67182
-8.68858
-8.70363
-8.71681
-8.72793
-8.73683
-8.74332
-8.74721
-8.74831
-8.74643
-8.74135
-8.73287
-8.72077
-8.70483
-8.68485
-8.66057
-8.63181
-8.59829
-8.55983
-8.51616
-8.4671
-8.41238
-8.35181
-8.28514
-8.21217
-8.1327
-8.04648
-7.95336
-7.85316
-7.7457
-7.63081
-7.50836
-7.37821
-7.24026
-7.09442
-6.94062
-6.77882
-6.60899
-6.43113
-6.24528
-6.0515
-5.84988
-5.64055
-5.42366
-5.1994
-4.968
-4.72971
-4.48482
-4.23366
-3.97661
-3.71403
-3.44638
-3.1741
-2.8977
-2.61768