/*--------------------------------*- C++ -*----------------------------------*\
| =========                 |                                                 |
| \\      /  F ield         | OpenFOAM: The Open Source CFD Toolbox           |
|  \\    /   O peration     | Version:  5.0                                   |
|   \\  /    A nd           | Web:      www.OpenFOAM.org                      |
|    \\/     M anipulation  |                                                 |
\*---------------------------------------------------------------------------*/
FoamFile
{
    version     2.0;
    format      ascii;
    class       surfaceScalarField;
    location    "200";
    object      phi;
}
// * * * * * * * * * * * * * * * * * * * * * * * * * * * * * * * * * * * * * //

dimensions      [0 3 -1 0 0 0 0];

internalField   nonuniform List<scalar> 
24170
(
3.129e-06
5.94012e-08
3.04662e-06
8.23812e-08
2.97353e-06
7.30951e-08
2.90489e-06
6.86367e-08
2.84056e-06
6.4333e-08
2.78323e-06
5.73293e-08
2.7339e-06
4.93294e-08
2.69194e-06
4.19581e-08
2.65626e-06
3.56814e-08
2.6258e-06
3.04556e-08
2.59959e-06
2.62105e-08
2.57678e-06
2.28064e-08
2.55671e-06
2.00706e-08
2.53879e-06
1.79216e-08
2.52262e-06
1.61708e-08
2.5072e-06
1.54167e-08
2.49287e-06
1.43304e-08
2.00948e-08
2.47277e-06
3.45306e-06
2.3586e-08
3.45701e-06
7.84399e-08
3.45054e-06
7.95567e-08
3.43908e-06
8.00945e-08
3.4243e-06
7.9113e-08
3.40705e-06
7.45812e-08
3.38783e-06
6.85515e-08
3.3673e-06
6.24886e-08
3.34614e-06
5.6834e-08
3.32495e-06
5.16446e-08
3.30421e-06
4.69517e-08
3.28419e-06
4.28252e-08
3.26509e-06
3.91735e-08
3.24694e-06
3.60711e-08
3.22984e-06
3.32683e-08
3.2137e-06
3.15595e-08
3.19887e-06
2.91534e-08
3.15001e-08
3.18747e-06
3.66816e-06
1.79431e-08
3.6792e-06
6.73994e-08
3.68543e-06
7.33306e-08
3.68946e-06
7.6062e-08
3.69105e-06
7.75174e-08
3.69008e-06
7.555e-08
3.68694e-06
7.16915e-08
3.6821e-06
6.73338e-08
3.67594e-06
6.2991e-08
3.66879e-06
5.87904e-08
3.66094e-06
5.48083e-08
3.65262e-06
5.11455e-08
3.64402e-06
4.77749e-08
3.63529e-06
4.4793e-08
3.62651e-06
4.20512e-08
3.61803e-06
4.004e-08
3.60933e-06
3.78558e-08
3.76809e-08
3.60315e-06
3.92585e-06
1.74829e-08
3.93592e-06
5.73297e-08
3.94257e-06
6.66806e-08
3.94811e-06
7.05229e-08
3.95252e-06
7.31051e-08
3.95546e-06
7.26046e-08
3.95713e-06
7.00254e-08
3.95776e-06
6.67047e-08
3.95754e-06
6.32101e-08
3.95662e-06
5.9711e-08
3.95513e-06
5.62967e-08
3.95319e-06
5.30805e-08
3.9509e-06
5.00664e-08
3.94835e-06
4.73378e-08
3.94559e-06
4.48196e-08
3.94286e-06
4.27658e-08
3.93993e-06
4.07832e-08
3.95084e-08
3.9381e-06
4.2082e-06
1.64109e-08
4.21598e-06
4.95456e-08
4.22168e-06
6.09843e-08
4.22678e-06
6.54199e-08
4.23153e-06
6.83594e-08
4.2355e-06
6.86365e-08
4.23866e-06
6.68614e-08
4.24113e-06
6.42331e-08
4.24302e-06
6.13251e-08
4.2444e-06
5.83249e-08
4.24537e-06
5.53302e-08
4.246e-06
5.24517e-08
4.24634e-06
4.97185e-08
4.24649e-06
4.71945e-08
4.24646e-06
4.48487e-08
4.24642e-06
4.27986e-08
4.24635e-06
4.08618e-08
3.91453e-08
4.24671e-06
4.51071e-06
1.47885e-08
4.51688e-06
4.33734e-08
4.52213e-06
5.57371e-08
4.52694e-06
6.06051e-08
4.53165e-06
6.36495e-08
4.5359e-06
6.4391e-08
4.53957e-06
6.31919e-08
4.54272e-06
6.10772e-08
4.54544e-06
5.8609e-08
4.54778e-06
5.59871e-08
4.54979e-06
5.33192e-08
4.55153e-06
5.07082e-08
4.55305e-06
4.81999e-08
4.5544e-06
4.58413e-08
4.55562e-06
4.36243e-08
4.55683e-06
4.1592e-08
4.55804e-06
3.96478e-08
3.77407e-08
4.55945e-06
4.83433e-06
1.31788e-08
4.83963e-06
3.80767e-08
4.84475e-06
5.06142e-08
4.84945e-06
5.59038e-08
4.85408e-06
5.90193e-08
4.85839e-06
6.00772e-08
4.86226e-06
5.93241e-08
4.86572e-06
5.76176e-08
4.86883e-06
5.55004e-08
4.87163e-06
5.31836e-08
4.87417e-06
5.07826e-08
4.87648e-06
4.83938e-08
4.87861e-06
4.60715e-08
4.8806e-06
4.38519e-08
4.88249e-06
4.17365e-08
4.88435e-06
3.97322e-08
4.88622e-06
3.77789e-08
3.5798e-08
4.88816e-06
5.18105e-06
1.17128e-08
5.18575e-06
3.33715e-08
5.19075e-06
4.56139e-08
5.1954e-06
5.12547e-08
5.19998e-06
5.44365e-08
5.20434e-06
5.57216e-08
5.20833e-06
5.53325e-08
5.21197e-06
5.39724e-08
5.21532e-06
5.21541e-08
5.2184e-06
5.00991e-08
5.22126e-06
4.79279e-08
5.22392e-06
4.57325e-08
5.22642e-06
4.35708e-08
5.2288e-06
4.14736e-08
5.23109e-06
3.94458e-08
5.23334e-06
3.74805e-08
5.23558e-06
3.55357e-08
3.35472e-08
5.23783e-06
5.55269e-06
1.03578e-08
5.55689e-06
2.91765e-08
5.56169e-06
4.0809e-08
5.5663e-06
4.66489e-08
5.57086e-06
4.98754e-08
5.57526e-06
5.13205e-08
5.57936e-06
5.12324e-08
5.58315e-06
5.01776e-08
5.58668e-06
4.86259e-08
5.58997e-06
4.68063e-08
5.59306e-06
4.48423e-08
5.59597e-06
4.28233e-08
5.59873e-06
4.08075e-08
5.60138e-06
3.88244e-08
5.60395e-06
3.6881e-08
5.60646e-06
3.49681e-08
5.60894e-06
3.30556e-08
3.11042e-08
5.61138e-06
5.95104e-06
9.09517e-09
5.95478e-06
2.54303e-08
5.95936e-06
3.62381e-08
5.96391e-06
4.20964e-08
5.96845e-06
4.53316e-08
5.97289e-06
4.688e-08
5.97709e-06
4.70339e-08
5.98102e-06
4.62472e-08
5.98471e-06
4.49373e-08
5.98818e-06
4.33342e-08
5.99146e-06
4.15631e-08
5.99457e-06
3.97106e-08
5.99754e-06
3.78343e-08
6.0004e-06
3.59643e-08
6.00317e-06
3.41099e-08
6.00588e-06
3.22653e-08
6.00852e-06
3.04107e-08
2.85288e-08
6.0111e-06
6.37798e-06
7.92448e-09
6.38134e-06
2.20684e-08
6.38567e-06
3.19119e-08
6.39015e-06
3.76138e-08
6.39467e-06
4.0811e-08
6.39914e-06
4.24121e-08
6.40343e-06
4.27492e-08
6.40748e-06
4.21919e-08
6.41132e-06
4.11003e-08
6.41495e-06
3.96975e-08
6.41841e-06
3.81087e-08
6.4217e-06
3.6417e-08
6.42486e-06
3.46789e-08
6.42789e-06
3.29258e-08
6.43083e-06
3.11701e-08
6.43369e-06
2.94113e-08
6.43646e-06
2.76387e-08
2.58524e-08
6.43914e-06
5.74176e-06
6.99871e-09
5.74434e-06
1.94865e-08
5.74781e-06
2.84443e-08
5.75153e-06
3.38882e-08
5.75533e-06
3.70113e-08
5.75912e-06
3.86233e-08
5.7628e-06
3.90707e-08
5.76632e-06
3.86748e-08
5.76967e-06
3.77496e-08
5.77286e-06
3.65046e-08
5.77591e-06
3.50625e-08
5.77882e-06
3.35041e-08
5.78161e-06
3.18842e-08
5.7843e-06
3.02352e-08
5.7869e-06
2.85723e-08
5.78941e-06
2.68999e-08
5.79184e-06
2.52136e-08
2.35249e-08
5.79417e-06
6.99914e-06
6.01549e-09
7.00187e-06
1.67542e-08
7.00563e-06
2.46817e-08
7.0098e-06
2.97236e-08
7.01411e-06
3.26939e-08
7.01847e-06
3.42723e-08
7.02274e-06
3.48005e-08
7.02686e-06
3.45535e-08
7.03081e-06
3.37957e-08
7.0346e-06
3.27174e-08
7.03822e-06
3.1436e-08
7.0417e-06
3.00279e-08
7.04504e-06
2.85462e-08
7.04825e-06
2.70236e-08
7.05134e-06
2.54786e-08
7.05432e-06
2.39203e-08
7.05719e-06
2.23502e-08
2.07884e-08
7.05992e-06
8.53188e-06
4.98257e-09
8.53474e-06
1.38987e-08
8.53877e-06
2.06515e-08
8.54336e-06
2.51267e-08
8.54822e-06
2.784e-08
8.55317e-06
2.93213e-08
8.55808e-06
2.98841e-08
8.56288e-06
2.97595e-08
8.56751e-06
2.91611e-08
8.57197e-06
2.82536e-08
8.57627e-06
2.71445e-08
8.58039e-06
2.59051e-08
8.58435e-06
2.45844e-08
8.58816e-06
2.32156e-08
8.59182e-06
2.18191e-08
8.59533e-06
2.04084e-08
8.59869e-06
1.89893e-08
1.75874e-08
8.60189e-06
1.04003e-05
3.909e-09
1.04033e-05
1.09395e-08
1.04075e-05
1.63752e-08
1.04125e-05
2.01061e-08
1.0418e-05
2.2433e-08
1.04235e-05
2.37331e-08
1.04292e-05
2.42674e-08
1.04347e-05
2.42233e-08
1.04401e-05
2.37652e-08
1.04453e-05
2.3026e-08
1.04504e-05
2.20987e-08
1.04552e-05
2.10461e-08
1.04599e-05
1.99122e-08
1.04644e-05
1.87285e-08
1.04687e-05
1.75161e-08
1.04728e-05
1.62908e-08
1.04767e-05
1.50614e-08
1.38552e-08
1.04805e-05
1.26779e-05
2.79972e-09
1.2681e-05
7.87075e-09
1.26855e-05
1.18512e-08
1.26909e-05
1.46556e-08
1.26969e-05
1.64449e-08
1.27032e-05
1.74584e-08
1.27096e-05
1.7886e-08
1.27159e-05
1.78672e-08
1.27222e-05
1.75192e-08
1.27283e-05
1.69396e-08
1.27342e-05
1.62006e-08
1.27399e-05
1.53531e-08
1.27453e-05
1.44338e-08
1.27506e-05
1.34696e-08
1.27556e-05
1.24804e-08
1.27604e-05
1.14816e-08
1.2765e-05
1.04826e-08
9.50987e-09
1.27694e-05
1.54543e-05
1.64377e-09
1.54576e-05
4.64632e-09
1.54624e-05
7.02135e-09
1.54683e-05
8.71504e-09
1.5475e-05
9.80171e-09
1.5482e-05
1.04065e-08
1.54893e-05
1.06391e-08
1.54966e-05
1.05833e-08
1.55038e-05
1.03095e-08
1.55108e-05
9.87714e-09
1.55177e-05
9.33268e-09
1.55243e-05
8.71034e-09
1.55307e-05
8.03578e-09
1.55369e-05
7.32866e-09
1.55428e-05
6.60432e-09
1.55484e-05
5.8753e-09
1.55537e-05
5.14937e-09
4.44947e-09
1.55588e-05
1.88389e-05
4.01033e-10
1.88424e-05
1.14136e-09
1.88477e-05
1.71169e-09
1.88543e-05
2.09295e-09
1.88618e-05
2.30512e-09
1.88698e-05
2.37595e-09
1.88782e-05
2.32743e-09
1.88866e-05
2.17924e-09
1.88949e-05
1.95143e-09
1.89031e-05
1.66216e-09
1.89111e-05
1.32659e-09
1.89189e-05
9.57203e-10
1.89264e-05
5.64714e-10
1.89335e-05
1.58263e-10
1.89404e-05
-2.54286e-10
1.89469e-05
-6.6578e-10
1.89532e-05
-1.07201e-09
-1.45543e-09
1.89591e-05
2.29648e-05
-1.03003e-09
2.29688e-05
-2.93332e-09
2.29751e-05
-4.49748e-09
2.29828e-05
-5.68721e-09
2.29917e-05
-6.52303e-09
2.30011e-05
-7.09125e-09
2.30109e-05
-7.47921e-09
2.30209e-05
-7.74149e-09
2.30307e-05
-7.91498e-09
2.30404e-05
-8.0308e-09
2.30499e-05
-8.11303e-09
2.3059e-05
-8.17598e-09
2.30678e-05
-8.2279e-09
2.30762e-05
-8.2729e-09
2.30843e-05
-8.31329e-09
2.30919e-05
-8.3489e-09
2.30993e-05
-8.38059e-09
-8.39725e-09
2.31062e-05
1.68118e-05
-2.15367e-09
1.6815e-05
-6.10651e-09
1.68198e-05
-9.33145e-09
1.68258e-05
-1.16902e-08
1.68326e-05
-1.3242e-08
1.68397e-05
-1.42147e-08
1.6847e-05
-1.47958e-08
1.68543e-05
-1.50892e-08
1.68616e-05
-1.51737e-08
1.68687e-05
-1.51216e-08
1.68756e-05
-1.49855e-08
1.68822e-05
-1.47986e-08
1.68885e-05
-1.45814e-08
1.68946e-05
-1.4348e-08
1.69004e-05
-1.41068e-08
1.69059e-05
-1.38626e-08
1.69112e-05
-1.36185e-08
-1.33679e-08
1.69161e-05
1.46356e-05
-3.23289e-09
1.46387e-05
-9.1957e-09
1.46435e-05
-1.40495e-08
1.46492e-05
-1.74391e-08
1.46555e-05
-1.95355e-08
1.46621e-05
-2.07885e-08
1.46687e-05
-2.14683e-08
1.46754e-05
-2.17108e-08
1.46818e-05
-2.16471e-08
1.46881e-05
-2.13937e-08
1.46941e-05
-2.10263e-08
1.46999e-05
-2.05896e-08
1.47055e-05
-2.01139e-08
1.47107e-05
-1.962e-08
1.47158e-05
-1.91216e-08
1.47205e-05
-1.86257e-08
1.4725e-05
-1.81375e-08
-1.76526e-08
1.47293e-05
1.27411e-05
-4.24343e-09
1.27443e-05
-1.23255e-08
1.27491e-05
-1.88836e-08
1.27548e-05
-2.30898e-08
1.27607e-05
-2.5522e-08
1.27669e-05
-2.6954e-08
1.27731e-05
-2.76488e-08
1.27791e-05
-2.77553e-08
1.2785e-05
-2.7481e-08
1.27906e-05
-2.69912e-08
1.27959e-05
-2.63754e-08
1.2801e-05
-2.56853e-08
1.28058e-05
-2.49579e-08
1.28104e-05
-2.42187e-08
1.28148e-05
-2.34834e-08
1.28189e-05
-2.27598e-08
1.28229e-05
-2.20532e-08
-2.13603e-08
1.28266e-05
1.10918e-05
-5.08785e-09
1.1095e-05
-1.55493e-08
1.11001e-05
-2.40123e-08
1.11058e-05
-2.87182e-08
1.11115e-05
-3.12623e-08
1.11173e-05
-3.27735e-08
1.1123e-05
-3.33833e-08
1.11286e-05
-3.32738e-08
1.11338e-05
-3.27477e-08
1.11388e-05
-3.20021e-08
1.11436e-05
-3.11291e-08
1.11481e-05
-3.01851e-08
1.11523e-05
-2.92133e-08
1.11564e-05
-2.82424e-08
1.11602e-05
-2.72873e-08
1.11638e-05
-2.63564e-08
1.11672e-05
-2.54533e-08
-2.45759e-08
1.11704e-05
9.65582e-06
-5.69547e-09
9.65925e-06
-1.89747e-08
9.66459e-06
-2.93599e-08
9.67009e-06
-3.42179e-08
9.67566e-06
-3.68239e-08
9.68122e-06
-3.83366e-08
9.68656e-06
-3.87203e-08
9.69159e-06
-3.83062e-08
9.69634e-06
-3.74971e-08
9.70082e-06
-3.64874e-08
9.70505e-06
-3.53559e-08
9.70903e-06
-3.4162e-08
9.71276e-06
-3.29534e-08
9.71628e-06
-3.17595e-08
9.71959e-06
-3.05953e-08
9.7227e-06
-2.9468e-08
9.72563e-06
-2.83796e-08
-2.73263e-08
9.72838e-06
8.40532e-06
-5.66638e-09
8.40964e-06
-2.32907e-08
8.41488e-06
-3.45966e-08
8.41991e-06
-3.92476e-08
8.42527e-06
-4.21922e-08
8.43068e-06
-4.37472e-08
8.43577e-06
-4.38087e-08
8.44048e-06
-4.30152e-08
8.44485e-06
-4.18694e-08
8.44891e-06
-4.05475e-08
8.45268e-06
-3.91193e-08
8.45616e-06
-3.76469e-08
8.45939e-06
-3.61801e-08
8.46237e-06
-3.47465e-08
8.46514e-06
-3.33612e-08
8.4677e-06
-3.20303e-08
8.47008e-06
-3.07559e-08
-2.95342e-08
8.47229e-06
7.31455e-06
-2.9288e-09
7.32119e-06
-2.99348e-08
7.32674e-06
-4.01489e-08
7.3317e-06
-4.42006e-08
7.3371e-06
-4.75917e-08
7.34242e-06
-4.90699e-08
7.3473e-06
-4.86885e-08
7.35171e-06
-4.74301e-08
7.35569e-06
-4.58495e-08
7.35925e-06
-4.41053e-08
7.36241e-06
-4.2278e-08
7.3652e-06
-4.04402e-08
7.36767e-06
-3.86445e-08
7.36984e-06
-3.69151e-08
7.37174e-06
-3.52671e-08
7.37341e-06
-3.37033e-08
7.37488e-06
-3.2224e-08
-3.08198e-08
7.37617e-06
6.36245e-06
4.68697e-09
6.37189e-06
-3.93772e-08
6.37932e-06
-4.75769e-08
6.38596e-06
-5.08427e-08
6.39225e-06
-5.38751e-08
6.39756e-06
-5.43842e-08
6.40186e-06
-5.29847e-08
6.40534e-06
-5.09123e-08
6.40814e-06
-4.86509e-08
6.41033e-06
-4.62918e-08
6.41196e-06
-4.39123e-08
6.41311e-06
-4.15891e-08
6.41384e-06
-3.93732e-08
6.41421e-06
-3.72826e-08
6.41427e-06
-3.53314e-08
6.41408e-06
-3.35154e-08
6.41369e-06
-3.18355e-08
-3.02722e-08
6.41315e-06
5.5412e-06
8.9492e-09
5.55033e-06
-4.85007e-08
5.55834e-06
-5.55959e-08
5.56605e-06
-5.85455e-08
5.57251e-06
-6.03376e-08
5.57684e-06
-5.87101e-08
5.57908e-06
-5.52274e-08
5.57964e-06
-5.1473e-08
5.57889e-06
-4.78988e-08
5.5771e-06
-4.45083e-08
5.57451e-06
-4.13202e-08
5.5713e-06
-3.83771e-08
5.56761e-06
-3.56873e-08
5.56357e-06
-3.32425e-08
5.55928e-06
-3.10397e-08
5.55483e-06
-2.9062e-08
5.5503e-06
-2.73109e-08
-2.57375e-08
5.54577e-06
4.86004e-06
-2.3487e-08
4.86539e-06
-5.3843e-08
4.86524e-06
-5.54509e-08
4.86217e-06
-5.54765e-08
4.857e-06
-5.51679e-08
4.8495e-06
-5.12104e-08
4.83981e-06
-4.55321e-08
4.82841e-06
-4.00806e-08
4.81584e-06
-3.53265e-08
4.80257e-06
-3.12311e-08
4.78897e-06
-2.77232e-08
4.77533e-06
-2.47404e-08
4.76185e-06
-2.22046e-08
4.74865e-06
-2.00448e-08
4.73583e-06
-1.82146e-08
4.72345e-06
-1.66811e-08
4.71162e-06
-1.5482e-08
-1.51368e-08
4.70102e-06
4.17919e-06
4.12535e-06
4.0699e-06
4.01442e-06
3.95925e-06
3.90804e-06
3.86251e-06
3.82243e-06
3.7871e-06
3.75587e-06
3.72815e-06
3.70341e-06
3.6812e-06
3.66116e-06
3.64294e-06
3.62626e-06
3.61078e-06
3.59564e-06
1.48409e-08
-1.4859e-08
2.85568e-08
-1.37426e-08
3.57941e-08
-7.25738e-09
3.59837e-08
-2.09293e-10
2.99628e-08
6.00562e-09
1.90774e-08
1.08681e-08
4.64686e-09
1.44184e-08
-1.23064e-08
1.69375e-08
-3.10556e-08
1.87396e-08
-5.11255e-08
2.00559e-08
-7.21969e-08
2.10638e-08
-9.4093e-08
2.18834e-08
-1.16686e-07
2.25872e-08
-1.39912e-07
2.32146e-08
-1.63705e-07
2.37889e-08
-1.88041e-07
2.4325e-08
-2.12883e-07
2.48388e-08
-2.38246e-07
2.53525e-08
-2.64146e-07
2.5898e-08
-2.90665e-07
2.65088e-08
-3.17895e-07
2.72282e-08
-3.45995e-07
2.80924e-08
-3.75076e-07
2.90804e-08
-4.05304e-07
3.02244e-08
-4.36902e-07
3.15978e-08
-4.68565e-07
3.16611e-08
-4.98035e-07
2.94676e-08
-5.27063e-07
2.9026e-08
-5.58721e-07
3.16534e-08
-5.93312e-07
3.4585e-08
-6.31908e-07
3.85902e-08
-6.77148e-07
4.5227e-08
-7.20006e-07
4.28488e-08
-7.58095e-07
3.80727e-08
-8.01363e-07
4.32613e-08
-8.45052e-07
4.36748e-08
-8.85113e-07
4.00579e-08
-9.24735e-07
3.9611e-08
-9.66826e-07
4.20893e-08
-1.00932e-06
4.24895e-08
-1.05205e-06
4.27281e-08
-1.09495e-06
4.2891e-08
-1.13794e-06
4.29889e-08
-1.18096e-06
4.30131e-08
-1.22394e-06
4.29801e-08
-1.26684e-06
4.29026e-08
-1.30963e-06
4.27938e-08
-1.3523e-06
4.26614e-08
-1.39481e-06
4.25109e-08
-1.43716e-06
4.23452e-08
-1.47933e-06
4.21659e-08
-1.52131e-06
4.19731e-08
-1.56308e-06
4.17665e-08
-1.60463e-06
4.15452e-08
-1.64594e-06
4.13076e-08
-1.687e-06
4.10516e-08
-1.72778e-06
4.07755e-08
-1.76827e-06
4.0477e-08
-1.80842e-06
4.01543e-08
-1.84823e-06
3.98045e-08
-1.88766e-06
3.94262e-08
-1.92668e-06
3.90169e-08
-1.96526e-06
3.85752e-08
-2.00336e-06
3.80981e-08
-2.04094e-06
3.75844e-08
-2.07797e-06
3.70315e-08
-2.1144e-06
3.64387e-08
-2.15021e-06
3.58035e-08
-2.18533e-06
3.51257e-08
-2.21973e-06
3.44028e-08
-2.25336e-06
3.3635e-08
-2.28618e-06
3.28198e-08
-2.31813e-06
3.19573e-08
-2.34917e-06
3.10454e-08
-2.37925e-06
3.00846e-08
-2.40832e-06
2.90728e-08
-2.43633e-06
2.80111e-08
-2.46323e-06
2.68981e-08
-2.48895e-06
2.57346e-08
-2.51347e-06
2.45184e-08
-2.53671e-06
2.325e-08
-2.55863e-06
2.19273e-08
-2.57916e-06
2.05503e-08
-2.59827e-06
1.91156e-08
-2.61588e-06
1.76224e-08
-2.63193e-06
1.60666e-08
-2.64635e-06
1.44456e-08
-2.65909e-06
1.27531e-08
-2.67005e-06
1.09825e-08
-2.67914e-06
9.12189e-09
-2.68627e-06
7.15384e-09
-2.69131e-06
5.0636e-09
-2.69416e-06
2.85759e-09
-2.69474e-06
6.02691e-10
-2.69324e-06
-1.49212e-09
-2.68984e-06
-3.39072e-09
-2.68458e-06
-5.23978e-09
-2.67749e-06
-7.08081e-09
-2.66855e-06
-8.93114e-09
-2.65774e-06
-1.07939e-08
-2.64506e-06
-1.26672e-08
-2.63049e-06
-1.45483e-08
-2.61404e-06
-1.64334e-08
-2.59569e-06
-1.83186e-08
-2.57546e-06
-2.02004e-08
-2.55335e-06
-2.20741e-08
-2.52937e-06
-2.39365e-08
-2.50354e-06
-2.57818e-08
-2.47589e-06
-2.76068e-08
-2.44643e-06
-2.94044e-08
-2.41521e-06
-3.1172e-08
-2.38226e-06
-3.29014e-08
-2.34762e-06
-3.45904e-08
-2.31134e-06
-3.62299e-08
-2.27348e-06
-3.78189e-08
-2.23409e-06
-3.93476e-08
-2.19323e-06
-4.08158e-08
-2.15098e-06
-4.22139e-08
-2.10742e-06
-4.35412e-08
-2.0626e-06
-4.47862e-08
-2.01661e-06
-4.59535e-08
-1.96951e-06
-4.7043e-08
-1.9214e-06
-4.80546e-08
-1.87237e-06
-4.89763e-08
-1.82253e-06
-4.98104e-08
-1.77195e-06
-5.05511e-08
-1.72075e-06
-5.12141e-08
-1.66899e-06
-5.17826e-08
-1.61679e-06
-5.22604e-08
-1.56422e-06
-5.26368e-08
-1.51141e-06
-5.29186e-08
-1.45843e-06
-5.3097e-08
-1.40539e-06
-5.31782e-08
-1.35239e-06
-5.31571e-08
-1.29953e-06
-5.3039e-08
-1.24688e-06
-5.28235e-08
-1.19454e-06
-5.25119e-08
-1.1426e-06
-5.21048e-08
-1.09112e-06
-5.16003e-08
-1.0402e-06
-5.10122e-08
-9.89909e-07
-5.03515e-08
-9.40298e-07
-4.96376e-08
-8.91424e-07
-4.88762e-08
-8.43322e-07
-4.80764e-08
-7.96033e-07
-4.7238e-08
-7.49582e-07
-4.63742e-08
-7.03992e-07
-4.54875e-08
-6.59268e-07
-4.45932e-08
-6.15417e-07
-4.36927e-08
-5.72425e-07
-4.28028e-08
-5.30279e-07
-4.19268e-08
-4.88943e-07
-4.10834e-08
-4.48386e-07
-4.02738e-08
-4.08553e-07
-3.9517e-08
-3.69389e-07
-3.88187e-08
-3.30815e-07
-3.81965e-08
-2.92764e-07
-3.76498e-08
-2.55132e-07
-3.72031e-08
-2.17825e-07
-3.68587e-08
-1.8073e-07
-3.66225e-08
-1.43732e-07
-3.65126e-08
-1.06655e-07
-3.6572e-08
-6.94093e-08
-3.67361e-08
-3.19462e-08
-3.69393e-08
5.65285e-09
-3.70779e-08
4.31863e-08
-3.70063e-08
8.06646e-08
-3.69711e-08
1.1858e-07
-3.74158e-08
1.57459e-07
-3.84064e-08
1.97754e-07
-3.98328e-08
2.39798e-07
-4.16104e-08
2.83859e-07
-4.36399e-08
3.30094e-07
-4.58471e-08
3.78599e-07
-4.81332e-08
4.2927e-07
-5.03371e-08
4.81711e-07
-5.2129e-08
5.34884e-07
-5.29042e-08
5.86057e-07
-5.09268e-08
6.29187e-07
-4.29214e-08
2.49374e-09
6.26892e-07
8.03075e-09
-2.29053e-08
8.13644e-09
-1.38668e-08
3.44664e-09
-2.57894e-09
-4.49477e-09
7.72202e-09
-1.52374e-08
1.67405e-08
-2.87115e-08
2.43337e-08
-4.47929e-08
3.04934e-08
-6.32267e-08
3.53634e-08
-8.36723e-08
3.91795e-08
-1.05821e-07
4.21973e-08
-1.29409e-07
4.46464e-08
-1.54243e-07
4.67097e-08
-1.80182e-07
4.85221e-08
-2.07154e-07
5.01795e-08
-2.35118e-07
5.175e-08
-2.64085e-07
5.32849e-08
-2.94076e-07
5.4827e-08
-3.25147e-07
5.64174e-08
-3.57345e-07
5.80942e-08
-3.90736e-07
5.98941e-08
-4.25366e-07
6.18565e-08
-4.61284e-07
6.40062e-08
-4.98514e-07
6.63091e-08
-5.36944e-07
6.86526e-08
-5.76182e-07
7.08347e-08
-6.16896e-07
7.23742e-08
-6.6067e-07
7.32407e-08
-7.0624e-07
7.45938e-08
-7.51486e-07
7.68965e-08
-7.96617e-07
7.97122e-08
-8.40744e-07
8.27118e-08
-8.80727e-07
8.52024e-08
-9.2323e-07
8.53461e-08
-9.69664e-07
8.44987e-08
-1.0116e-06
8.5192e-08
-1.05282e-06
8.48864e-08
-1.09649e-06
8.3722e-08
-1.14015e-06
8.32739e-08
-1.18162e-06
8.35555e-08
-1.22266e-06
8.35233e-08
-1.26326e-06
8.33293e-08
-1.30345e-06
8.30703e-08
-1.34323e-06
8.2772e-08
-1.38266e-06
8.2441e-08
-1.42176e-06
8.20795e-08
-1.46055e-06
8.16906e-08
-1.49903e-06
8.12779e-08
-1.53722e-06
8.0844e-08
-1.5751e-06
8.03903e-08
-1.61267e-06
7.99168e-08
-1.64993e-06
7.94223e-08
-1.68686e-06
7.89048e-08
-1.72346e-06
7.83617e-08
-1.75971e-06
7.77898e-08
-1.79559e-06
7.71854e-08
-1.83109e-06
7.65447e-08
-1.86618e-06
7.58636e-08
-1.90084e-06
7.51385e-08
-1.93505e-06
7.4365e-08
-1.96879e-06
7.35394e-08
-2.00203e-06
7.2658e-08
-2.03473e-06
7.17173e-08
-2.06687e-06
7.07137e-08
-2.09841e-06
6.96439e-08
-2.12933e-06
6.85045e-08
-2.1596e-06
6.72928e-08
-2.18916e-06
6.6006e-08
-2.218e-06
6.46417e-08
-2.24607e-06
6.31978e-08
-2.27334e-06
6.16722e-08
-2.29976e-06
6.00629e-08
-2.32531e-06
5.83681e-08
-2.34993e-06
5.65864e-08
-2.3736e-06
5.47162e-08
-2.39627e-06
5.27563e-08
-2.4179e-06
5.07058e-08
-2.43845e-06
4.85643e-08
-2.45788e-06
4.63311e-08
-2.47615e-06
4.40058e-08
-2.49321e-06
4.15871e-08
-2.50903e-06
3.90749e-08
-2.52357e-06
3.64682e-08
-2.53677e-06
3.37665e-08
-2.54862e-06
3.09685e-08
-2.55906e-06
2.8074e-08
-2.56807e-06
2.5082e-08
-2.5756e-06
2.19923e-08
-2.58164e-06
1.88043e-08
-2.58616e-06
1.55188e-08
-2.58916e-06
1.21374e-08
-2.59066e-06
8.66957e-09
-2.59073e-06
5.14015e-09
-2.58945e-06
1.59091e-09
-2.5869e-06
-1.93861e-09
-2.58292e-06
-5.46298e-09
-2.57729e-06
-9.01876e-09
-2.56991e-06
-1.26088e-08
-2.56075e-06
-1.62305e-08
-2.5498e-06
-1.98835e-08
-2.53702e-06
-2.35642e-08
-2.52241e-06
-2.72667e-08
-2.50596e-06
-3.09842e-08
-2.48767e-06
-3.47089e-08
-2.46754e-06
-3.84332e-08
-2.44557e-06
-4.21487e-08
-2.42177e-06
-4.58475e-08
-2.39616e-06
-4.95206e-08
-2.36875e-06
-5.31589e-08
-2.33957e-06
-5.67526e-08
-2.30866e-06
-6.02916e-08
-2.27603e-06
-6.37657e-08
-2.24174e-06
-6.7164e-08
-2.20582e-06
-7.04764e-08
-2.16833e-06
-7.36917e-08
-2.12932e-06
-7.67999e-08
-2.08885e-06
-7.97901e-08
-2.04699e-06
-8.2653e-08
-2.0038e-06
-8.53789e-08
-1.95937e-06
-8.79586e-08
-1.91376e-06
-9.0381e-08
-1.86704e-06
-9.2641e-08
-1.81932e-06
-9.47365e-08
-1.77066e-06
-9.66721e-08
-1.72117e-06
-9.84378e-08
-1.67094e-06
-1.0002e-07
-1.62006e-06
-1.01419e-07
-1.56862e-06
-1.0265e-07
-1.51672e-06
-1.03697e-07
-1.46445e-06
-1.04558e-07
-1.41191e-06
-1.05223e-07
-1.35919e-06
-1.05696e-07
-1.30638e-06
-1.0597e-07
-1.25359e-06
-1.06048e-07
-1.2009e-06
-1.0593e-07
-1.14841e-06
-1.05623e-07
-1.0962e-06
-1.05128e-07
-1.04435e-06
-1.04453e-07
-9.92939e-07
-1.03597e-07
-9.42033e-07
-1.02571e-07
-8.917e-07
-1.01386e-07
-8.42009e-07
-1.00069e-07
-7.93013e-07
-9.86415e-08
-7.44761e-07
-9.71281e-08
-6.97283e-07
-9.55351e-08
-6.50612e-07
-9.38835e-08
-6.04759e-07
-9.21804e-08
-5.5974e-07
-9.04534e-08
-5.15549e-07
-8.87101e-08
-4.72181e-07
-8.69794e-08
-4.29611e-07
-8.52687e-08
-3.87813e-07
-8.36125e-08
-3.46741e-07
-8.20194e-08
-3.06348e-07
-8.05226e-08
-2.66566e-07
-7.91299e-08
-2.27326e-07
-7.78834e-08
-1.88535e-07
-7.67882e-08
-1.50103e-07
-7.58787e-08
-1.11909e-07
-7.51713e-08
-7.38355e-08
-7.47055e-08
-3.57452e-08
-7.44671e-08
2.46753e-09
-7.44819e-08
4.08858e-08
-7.47316e-08
7.96344e-08
-7.52331e-08
1.18975e-07
-7.60195e-08
1.59229e-07
-7.70811e-08
2.00796e-07
-7.83158e-08
2.43925e-07
-7.98549e-08
2.88709e-07
-8.19511e-08
3.35264e-07
-8.47246e-08
3.83791e-07
-8.81223e-08
4.34459e-07
-9.20553e-08
4.87415e-07
-9.6375e-08
5.42705e-07
-1.00931e-07
6.00269e-07
-1.05499e-07
6.59844e-07
-1.0973e-07
7.209e-07
-1.13017e-07
7.8224e-07
-1.14094e-07
8.42125e-07
-1.10679e-07
8.95174e-07
-9.58542e-08
-4.68499e-08
9.44623e-07
-3.37198e-09
-1.95449e-08
-1.28074e-08
-4.44343e-09
-2.45709e-08
9.17756e-09
-3.78554e-08
2.10004e-08
-5.25012e-08
3.13815e-08
-6.86006e-08
4.04278e-08
-8.62952e-08
4.81838e-08
-1.0567e-07
5.47329e-08
-1.26716e-07
6.02214e-08
-1.49361e-07
6.48369e-08
-1.73494e-07
6.8776e-08
-1.99009e-07
7.22195e-08
-2.2581e-07
7.53199e-08
-2.53835e-07
7.81995e-08
-2.83041e-07
8.09535e-08
-3.13417e-07
8.36557e-08
-3.44956e-07
8.6364e-08
-3.77667e-07
8.91241e-08
-4.11545e-07
9.19698e-08
-4.46577e-07
9.49221e-08
-4.82703e-07
9.79815e-08
-5.19814e-07
1.01114e-07
-5.57752e-07
1.04245e-07
-5.9635e-07
1.07249e-07
-6.35478e-07
1.09963e-07
-6.75331e-07
1.12227e-07
-7.16143e-07
1.14052e-07
-7.57356e-07
1.15806e-07
-7.981e-07
1.17639e-07
-8.37845e-07
1.19454e-07
-8.76232e-07
1.21096e-07
-9.13207e-07
1.22173e-07
-9.50354e-07
1.22489e-07
-9.88167e-07
1.22308e-07
-1.02508e-06
1.22097e-07
-1.06178e-06
1.21582e-07
-1.09895e-06
1.20891e-07
-1.13605e-06
1.20378e-07
-1.17249e-06
1.19991e-07
-1.20849e-06
1.19523e-07
-1.24416e-06
1.18997e-07
-1.27954e-06
1.18442e-07
-1.31464e-06
1.17869e-07
-1.34948e-06
1.17283e-07
-1.38408e-06
1.16683e-07
-1.41846e-06
1.16067e-07
-1.45261e-06
1.15432e-07
-1.48655e-06
1.14779e-07
-1.52026e-06
1.14102e-07
-1.55375e-06
1.13401e-07
-1.58699e-06
1.12669e-07
-1.62e-06
1.11904e-07
-1.65274e-06
1.11101e-07
-1.6852e-06
1.10253e-07
-1.71737e-06
1.09357e-07
-1.74924e-06
1.08405e-07
-1.78077e-06
1.07393e-07
-1.81194e-06
1.06315e-07
-1.84275e-06
1.05165e-07
-1.87315e-06
1.03938e-07
-1.90312e-06
1.02629e-07
-1.93264e-06
1.01233e-07
-1.96167e-06
9.97456e-08
-1.99019e-06
9.81612e-08
-2.01816e-06
9.64761e-08
-2.04555e-06
9.4686e-08
-2.07234e-06
9.27875e-08
-2.09847e-06
9.07771e-08
-2.12392e-06
8.86517e-08
-2.14866e-06
8.64083e-08
-2.17264e-06
8.40445e-08
-2.19582e-06
8.15575e-08
-2.21818e-06
7.89454e-08
-2.23967e-06
7.62062e-08
-2.26025e-06
7.33382e-08
-2.27988e-06
7.03403e-08
-2.29853e-06
6.72116e-08
-2.31614e-06
6.39512e-08
-2.33269e-06
6.05587e-08
-2.34814e-06
5.70332e-08
-2.36243e-06
5.33749e-08
-2.37554e-06
4.95835e-08
-2.38743e-06
4.56593e-08
-2.39806e-06
4.16027e-08
-2.40739e-06
3.74151e-08
-2.4154e-06
3.30981e-08
-2.42206e-06
2.86546e-08
-2.42733e-06
2.40884e-08
-2.43121e-06
1.94055e-08
-2.43368e-06
1.46145e-08
-2.43473e-06
9.72896e-09
-2.43435e-06
4.76999e-09
-2.43251e-06
-2.40596e-10
-2.42915e-06
-5.29554e-09
-2.4242e-06
-1.0416e-08
-2.41759e-06
-1.56171e-08
-2.40931e-06
-2.08907e-08
-2.39931e-06
-2.62265e-08
-2.38757e-06
-3.16157e-08
-2.37408e-06
-3.70487e-08
-2.35883e-06
-4.25152e-08
-2.3418e-06
-4.8004e-08
-2.323e-06
-5.35033e-08
-2.30241e-06
-5.90012e-08
-2.28006e-06
-6.44853e-08
-2.25595e-06
-6.99431e-08
-2.23009e-06
-7.53608e-08
-2.2025e-06
-8.07249e-08
-2.17321e-06
-8.60202e-08
-2.14225e-06
-9.12322e-08
-2.10965e-06
-9.63448e-08
-2.07545e-06
-1.01343e-07
-2.03969e-06
-1.06211e-07
-2.00243e-06
-1.10932e-07
-1.96372e-06
-1.15491e-07
-1.92362e-06
-1.19874e-07
-1.88219e-06
-1.24064e-07
-1.83951e-06
-1.2805e-07
-1.79564e-06
-1.31816e-07
-1.75065e-06
-1.35349e-07
-1.70464e-06
-1.38637e-07
-1.65767e-06
-1.41676e-07
-1.60985e-06
-1.44469e-07
-1.56125e-06
-1.47013e-07
-1.51197e-06
-1.49285e-07
-1.46209e-06
-1.51284e-07
-1.41172e-06
-1.53021e-07
-1.36094e-06
-1.54491e-07
-1.30983e-06
-1.55682e-07
-1.2585e-06
-1.56589e-07
-1.20702e-06
-1.57208e-07
-1.1555e-06
-1.57538e-07
-1.10401e-06
-1.57581e-07
-1.05266e-06
-1.57341e-07
-1.00152e-06
-1.56823e-07
-9.50676e-07
-1.56038e-07
-9.00196e-07
-1.54993e-07
-8.5015e-07
-1.53696e-07
-8.00598e-07
-1.52162e-07
-7.51602e-07
-1.5041e-07
-7.03218e-07
-1.4847e-07
-6.55498e-07
-1.46374e-07
-6.08476e-07
-1.44152e-07
-5.62185e-07
-1.41825e-07
-5.1664e-07
-1.39417e-07
-4.71855e-07
-1.36952e-07
-4.27827e-07
-1.34457e-07
-3.84552e-07
-1.3196e-07
-3.42006e-07
-1.29489e-07
-3.00164e-07
-1.27072e-07
-2.58985e-07
-1.24743e-07
-2.18422e-07
-1.22532e-07
-1.7841e-07
-1.20473e-07
-1.38882e-07
-1.18594e-07
-9.97516e-08
-1.16941e-07
-6.09261e-08
-1.15541e-07
-2.22968e-08
-1.14427e-07
1.62381e-08
-1.13626e-07
5.47926e-08
-1.13174e-07
9.35132e-08
-1.13105e-07
1.32584e-07
-1.13465e-07
1.72197e-07
-1.14262e-07
2.12562e-07
-1.15512e-07
2.53877e-07
-1.17254e-07
2.96377e-07
-1.19498e-07
3.4036e-07
-1.2222e-07
3.8609e-07
-1.25505e-07
4.33718e-07
-1.29503e-07
4.83368e-07
-1.34297e-07
5.35167e-07
-1.39849e-07
5.89232e-07
-1.46048e-07
6.4564e-07
-1.52714e-07
7.04388e-07
-1.59612e-07
7.65364e-07
-1.66411e-07
8.28291e-07
-1.72595e-07
8.9265e-07
-1.77319e-07
9.57559e-07
-1.78949e-07
1.02173e-06
-1.74802e-07
1.08365e-06
-1.57731e-07
-1.1248e-07
1.14933e-06
-1.21724e-08
-7.38203e-09
-2.77901e-08
1.11654e-08
-4.43718e-08
2.57541e-08
-6.15446e-08
3.81686e-08
-7.93278e-08
4.91611e-08
-9.78724e-08
5.89683e-08
-1.17367e-07
6.76752e-08
-1.37983e-07
7.53448e-08
-1.59834e-07
8.20693e-08
-1.82976e-07
8.79745e-08
-2.07409e-07
9.32062e-08
-2.33106e-07
9.79123e-08
-2.60019e-07
1.02229e-07
-2.88097e-07
1.06274e-07
-3.17289e-07
1.10142e-07
-3.47544e-07
1.13908e-07
-3.78806e-07
1.17624e-07
-4.11011e-07
1.21326e-07
-4.44075e-07
1.25032e-07
-4.77892e-07
1.28736e-07
-5.12322e-07
1.32411e-07
-5.47208e-07
1.35998e-07
-5.82375e-07
1.39412e-07
-6.17679e-07
1.42551e-07
-6.53028e-07
1.45312e-07
-6.88423e-07
1.47621e-07
-7.23873e-07
1.49501e-07
-7.59157e-07
1.51089e-07
-7.93998e-07
1.52478e-07
-8.28205e-07
1.53659e-07
-8.61683e-07
1.54571e-07
-8.94628e-07
1.55115e-07
-9.27421e-07
1.5528e-07
-9.60248e-07
1.55131e-07
-9.92907e-07
1.54754e-07
-1.02549e-06
1.54166e-07
-1.05808e-06
1.53471e-07
-1.0905e-06
1.52796e-07
-1.12266e-06
1.5215e-07
-1.15462e-06
1.51483e-07
-1.18641e-06
1.50791e-07
-1.21805e-06
1.50079e-07
-1.24954e-06
1.49354e-07
-1.28087e-06
1.48618e-07
-1.31206e-06
1.47869e-07
-1.3431e-06
1.47105e-07
-1.37399e-06
1.46323e-07
-1.40473e-06
1.45517e-07
-1.43531e-06
1.44683e-07
-1.46573e-06
1.43815e-07
-1.49596e-06
1.42907e-07
-1.52601e-06
1.41953e-07
-1.55586e-06
1.40946e-07
-1.58548e-06
1.39879e-07
-1.61487e-06
1.38744e-07
-1.644e-06
1.37536e-07
-1.67286e-06
1.36247e-07
-1.70141e-06
1.34869e-07
-1.72965e-06
1.33396e-07
-1.75753e-06
1.31821e-07
-1.78504e-06
1.30137e-07
-1.81215e-06
1.28339e-07
-1.83882e-06
1.2642e-07
-1.86504e-06
1.24374e-07
-1.89076e-06
1.22197e-07
-1.91596e-06
1.19883e-07
-1.9406e-06
1.17427e-07
-1.96464e-06
1.14825e-07
-1.98806e-06
1.12073e-07
-2.01082e-06
1.09168e-07
-2.03288e-06
1.06105e-07
-2.0542e-06
1.02883e-07
-2.07475e-06
9.94981e-08
-2.09449e-06
9.5948e-08
-2.11338e-06
9.22308e-08
-2.13139e-06
8.8345e-08
-2.14846e-06
8.42894e-08
-2.16457e-06
8.0063e-08
-2.17968e-06
7.56655e-08
-2.19374e-06
7.10963e-08
-2.20671e-06
6.63559e-08
-2.21857e-06
6.14447e-08
-2.22927e-06
5.63638e-08
-2.23878e-06
5.11148e-08
-2.24706e-06
4.57004e-08
-2.25408e-06
4.01238e-08
-2.25981e-06
3.43898e-08
-2.26422e-06
2.85041e-08
-2.26728e-06
2.24746e-08
-2.26897e-06
1.63107e-08
-2.26926e-06
1.00242e-08
-2.26812e-06
3.62902e-09
-2.26549e-06
-2.86428e-09
-2.26133e-06
-9.45455e-09
-2.25559e-06
-1.61503e-08
-2.24825e-06
-2.29537e-08
-2.23929e-06
-2.98556e-08
-2.22867e-06
-3.68432e-08
-2.21638e-06
-4.39037e-08
-2.2024e-06
-5.1023e-08
-2.18672e-06
-5.8187e-08
-2.16934e-06
-6.53802e-08
-2.15024e-06
-7.25873e-08
-2.12944e-06
-7.9792e-08
-2.10694e-06
-8.69778e-08
-2.08274e-06
-9.41275e-08
-2.05686e-06
-1.01223e-07
-2.02932e-06
-1.08246e-07
-2.00015e-06