/*--------------------------------*- C++ -*----------------------------------*\
| =========                 |                                                 |
| \\      /  F ield         | OpenFOAM: The Open Source CFD Toolbox           |
|  \\    /   O peration     | Version:  5.0                                   |
|   \\  /    A nd           | Web:      www.OpenFOAM.org                      |
|    \\/     M anipulation  |                                                 |
\*---------------------------------------------------------------------------*/
FoamFile
{
    version     2.0;
    format      ascii;
    class       volVectorField;
    location    "200";
    object      U;
}
// * * * * * * * * * * * * * * * * * * * * * * * * * * * * * * * * * * * * * //

dimensions      [0 1 -1 0 0 0 0];

internalField   nonuniform List<vector> 
12225
(
(9.85697 -0.886445 0)
(9.66664 -0.740745 0)
(9.4557 -0.429481 0)
(9.22451 -0.222211 0)
(9.00645 -0.106454 0)
(8.81432 -0.0458636 0)
(8.64739 -0.0151699 0)
(8.50519 0.000457463 0)
(8.38346 0.00839556 0)
(8.28066 0.0122897 0)
(8.19216 0.0140057 0)
(8.1159 0.0150212 0)
(8.04898 0.0154237 0)
(7.98979 0.0156385 0)
(7.93617 0.0157336 0)
(7.88939 0.0156223 0)
(7.8342 0.0178819 0)
(7.82472 0.0124845 0)
(10.0545 0.227567 0)
(10.121 0.326913 0)
(10.1196 0.261574 0)
(10.0856 0.186545 0)
(10.0434 0.134674 0)
(9.9967 0.101122 0)
(9.94398 0.0792976 0)
(9.8852 0.0645794 0)
(9.82383 0.0542781 0)
(9.76127 0.0466977 0)
(9.69978 0.0409427 0)
(9.6399 0.0364068 0)
(9.58254 0.0327709 0)
(9.52806 0.0299486 0)
(9.47611 0.0275228 0)
(9.42842 0.0268192 0)
(9.38044 0.0239158 0)
(9.34656 0.0339224 0)
(10.0035 0.0579192 0)
(10.0303 0.05601 0)
(10.0561 0.0337851 0)
(10.0703 0.0329041 0)
(10.077 0.040656 0)
(10.0778 0.0465568 0)
(10.0725 0.0493748 0)
(10.0613 0.0503252 0)
(10.0461 0.0502309 0)
(10.0276 0.0495279 0)
(10.0071 0.0484997 0)
(9.98481 0.0473584 0)
(9.96161 0.0462089 0)
(9.93789 0.0452006 0)
(9.91386 0.044231 0)
(9.89033 0.0439704 0)
(9.8668 0.0433677 0)
(9.84509 0.0461925 0)
(9.99779 0.0110547 0)
(10.011 0.0266122 0)
(10.035 0.0371576 0)
(10.0525 0.0480956 0)
(10.0643 0.055466 0)
(10.0734 0.0582024 0)
(10.0795 0.0583778 0)
(10.0823 0.0576435 0)
(10.0827 0.0566053 0)
(10.0811 0.0554243 0)
(10.078 0.0541737 0)
(10.0736 0.0529756 0)
(10.0682 0.0518321 0)
(10.062 0.0508583 0)
(10.0551 0.0499705 0)
(10.0481 0.0495976 0)
(10.0409 0.0491352 0)
(10.034 0.0499463 0)
(9.99935 0.00719962 0)
(10.009 0.0316597 0)
(10.0275 0.0439314 0)
(10.0418 0.0499359 0)
(10.0528 0.0536294 0)
(10.0628 0.0552594 0)
(10.0715 0.0555466 0)
(10.0783 0.0552664 0)
(10.0834 0.0547363 0)
(10.0872 0.0540508 0)
(10.0899 0.0532678 0)
(10.0918 0.0524865 0)
(10.0929 0.0517293 0)
(10.0935 0.0510817 0)
(10.0936 0.0505133 0)
(10.0935 0.050241 0)
(10.0933 0.0499869 0)
(10.0933 0.050135 0)
(10.0003 0.00918038 0)
(10.0083 0.0311765 0)
(10.0227 0.0409548 0)
(10.0349 0.0454087 0)
(10.045 0.0490589 0)
(10.0547 0.0514004 0)
(10.0637 0.0523899 0)
(10.0713 0.0526342 0)
(10.0778 0.0525154 0)
(10.0833 0.0521731 0)
(10.0881 0.0516864 0)
(10.0923 0.0511475 0)
(10.0959 0.050598 0)
(10.0991 0.0501006 0)
(10.1019 0.0496531 0)
(10.1045 0.04935 0)
(10.1072 0.0490585 0)
(10.11 0.0487911 0)
(10.0005 0.00894728 0)
(10.0071 0.0270932 0)
(10.0191 0.036426 0)
(10.0302 0.0414088 0)
(10.0396 0.0454383 0)
(10.0486 0.0481108 0)
(10.0572 0.049389 0)
(10.0649 0.0498707 0)
(10.0716 0.0499598 0)
(10.0777 0.0498045 0)
(10.0832 0.0494854 0)
(10.0882 0.0490839 0)
(10.0928 0.0486485 0)
(10.097 0.0482242 0)
(10.101 0.0478169 0)
(10.1049 0.047458 0)
(10.1087 0.0470675 0)
(10.1126 0.0465539 0)
(10.0004 0.00791894 0)
(10.006 0.0233884 0)
(10.0161 0.0327504 0)
(10.0263 0.0381222 0)
(10.0351 0.0421238 0)
(10.0436 0.0448147 0)
(10.0517 0.0462353 0)
(10.0591 0.0468814 0)
(10.0659 0.0471198 0)
(10.072 0.0470972 0)
(10.0778 0.0468951 0)
(10.0831 0.0465867 0)
(10.088 0.0462221 0)
(10.0927 0.0458343 0)
(10.0972 0.0454301 0)
(10.1016 0.0450094 0)
(10.1059 0.044514 0)
(10.1103 0.0438465 0)
(10.0004 0.00696374 0)
(10.0051 0.0204375 0)
(10.0137 0.0294707 0)
(10.0229 0.0348849 0)
(10.0312 0.0387429 0)
(10.0391 0.0414129 0)
(10.0468 0.042955 0)
(10.054 0.0437416 0)
(10.0606 0.0440976 0)
(10.0667 0.0441751 0)
(10.0724 0.0440572 0)
(10.0778 0.0438122 0)
(10.0829 0.0434882 0)
(10.0878 0.043112 0)
(10.0924 0.0426883 0)
(10.097 0.0422055 0)
(10.1015 0.0416169 0)
(10.106 0.0408499 0)
(10.0004 0.00613334 0)
(10.0043 0.0178735 0)
(10.0116 0.026295 0)
(10.0199 0.0316079 0)
(10.0276 0.0353404 0)
(10.0351 0.0379753 0)
(10.0424 0.0395976 0)
(10.0493 0.0404878 0)
(10.0557 0.0409311 0)
(10.0617 0.0410821 0)
(10.0673 0.0410246 0)
(10.0727 0.0408222 0)
(10.0778 0.0405195 0)
(10.0827 0.0401404 0)
(10.0874 0.0396884 0)
(10.092 0.0391501 0)
(10.0965 0.038489 0)
(10.1009 0.0376613 0)
(10.0003 0.00537378 0)
(10.0037 0.0155653 0)
(10.0099 0.0232589 0)
(10.0173 0.0283747 0)
(10.0245 0.0319657 0)
(10.0315 0.0345245 0)
(10.0384 0.0361723 0)
(10.0449 0.0371268 0)
(10.0511 0.0376308 0)
(10.057 0.037834 0)
(10.0625 0.037819 0)
(10.0678 0.0376444 0)
(10.0729 0.0373519 0)
(10.0777 0.0369634 0)
(10.0824 0.0364835 0)
(10.0869 0.0359013 0)
(10.0913 0.0351908 0)
(10.0957 0.034332 0)
(10.0003 0.00470892 0)
(10.0032 0.0136251 0)
(10.0086 0.0206139 0)
(10.0152 0.025465 0)
(10.0219 0.0288904 0)
(10.0285 0.031344 0)
(10.035 0.0329729 0)
(10.0413 0.0339539 0)
(10.0473 0.0344913 0)
(10.053 0.0347247 0)
(10.0584 0.0347344 0)
(10.0636 0.0345752 0)
(10.0686 0.0342857 0)
(10.0734 0.0338873 0)
(10.078 0.0333859 0)
(10.0824 0.0327755 0)
(10.0867 0.0320386 0)
(10.0909 0.0311734 0)
(10.0003 0.00409438 0)
(10.0028 0.0118567 0)
(10.0075 0.0181159 0)
(10.0134 0.0226259 0)
(10.0197 0.0258511 0)
(10.0259 0.0281738 0)
(10.032 0.029751 0)
(10.0381 0.0307309 0)
(10.0438 0.0312827 0)
(10.0494 0.0315323 0)
(10.0547 0.0315564 0)
(10.0597 0.0314061 0)
(10.0646 0.0311171 0)
(10.0693 0.0307107 0)
(10.0738 0.0301948 0)
(10.0781 0.0295684 0)
(10.0823 0.028821 0)
(10.0863 0.0279644 0)
(10.0002 0.00345956 0)
(10.0024 0.0100186 0)
(10.0064 0.0154363 0)
(10.0117 0.0194801 0)
(10.0174 0.0224216 0)
(10.0232 0.0245534 0)
(10.029 0.0260278 0)
(10.0347 0.0269686 0)
(10.0403 0.0275094 0)
(10.0456 0.0277579 0)
(10.0507 0.0277847 0)
(10.0557 0.0276363 0)
(10.0604 0.0273455 0)
(10.0649 0.026933 0)
(10.0693 0.0264091 0)
(10.0735 0.0257777 0)
(10.0776 0.0250352 0)
(10.0814 0.0242029 0)
(10.0002 0.00280042 0)
(10.002 0.00810932 0)
(10.0055 0.012585 0)
(10.0101 0.0160328 0)
(10.0153 0.0185881 0)
(10.0206 0.0204535 0)
(10.026 0.0217606 0)
(10.0314 0.02261 0)
(10.0367 0.0231025 0)
(10.0418 0.0233244 0)
(10.0468 0.0233364 0)
(10.0515 0.0231799 0)
(10.0561 0.0228839 0)
(10.0605 0.0224684 0)
(10.0647 0.0219454 0)
(10.0688 0.021323 0)
(10.0726 0.0206029 0)
(10.0764 0.0198122 0)
(10.0002 0.00211621 0)
(10.0017 0.00613066 0)
(10.0047 0.00957041 0)
(10.0087 0.0122883 0)
(10.0134 0.0143381 0)
(10.0183 0.0158437 0)
(10.0233 0.0169043 0)
(10.0283 0.0175956 0)
(10.0333 0.0179892 0)
(10.0382 0.0181487 0)
(10.0429 0.018122 0)
(10.0475 0.0179432 0)
(10.0519 0.0176369 0)
(10.0562 0.0172212 0)
(10.0602 0.0167088 0)
(10.0641 0.0161099 0)
(10.0678 0.0154295 0)
(10.0713 0.0146966 0)
(10.0002 0.00140391 0)
(10.0015 0.00406838 0)
(10.0041 0.00637579 0)
(10.0076 0.00822909 0)
(10.0118 0.00964214 0)
(10.0163 0.0106793 0)
(10.0209 0.0114013 0)
(10.0257 0.0118569 0)
(10.0304 0.012091 0)
(10.035 0.0121442 0)
(10.0395 0.0120493 0)
(10.0439 0.0118307 0)
(10.0481 0.011507 0)
(10.0522 0.0110927 0)
(10.0561 0.0105991 0)
(10.0598 0.0100363 0)
(10.0633 0.0094101 0)
(10.0667 0.0087481 0)
(10.0001 0.000646967 0)
(10.0013 0.00187034 0)
(10.0036 0.00292854 0)
(10.0069 0.00377444 0)
(10.0107 0.00440889 0)
(10.0149 0.00485432 0)
(10.0192 0.00513364 0)
(10.0237 0.00526668 0)
(10.0281 0.00527262 0)
(10.0326 0.00516947 0)
(10.0369 0.00497244 0)
(10.0411 0.00469378 0)
(10.0451 0.00434356 0)
(10.049 0.00393048 0)
(10.0527 0.00346214 0)
(10.0563 0.00294606 0)
(10.0597 0.00238659 0)
(10.0629 0.00180727 0)
(10.0001 -0.000197851 0)
(10.0013 -0.000585685 0)
(10.0035 -0.000945045 0)
(10.0066 -0.00126867 0)
(10.0103 -0.00155563 0)
(10.0143 -0.00182002 0)
(10.0185 -0.00207961 0)
(10.0228 -0.00234663 0)
(10.0272 -0.0026285 0)
(10.0314 -0.00293104 0)
(10.0356 -0.00325871 0)
(10.0397 -0.00361414 0)
(10.0436 -0.00399815 0)
(10.0473 -0.00441031 0)
(10.0509 -0.00484921 0)
(10.0543 -0.00531225 0)
(10.0576 -0.00579838 0)
(10.0607 -0.00629062 0)
(10.0001 -0.00100629 0)
(10.0013 -0.00294264 0)
(10.0037 -0.00466919 0)
(10.007 -0.00610798 0)
(10.0108 -0.00725557 0)
(10.015 -0.00817184 0)
(10.0193 -0.00891815 0)
(10.0237 -0.00953656 0)
(10.0281 -0.0100614 0)
(10.0324 -0.0105244 0)
(10.0365 -0.0109502 0)
(10.0405 -0.0113558 0)
(10.0444 -0.0117523 0)
(10.0481 -0.0121472 0)
(10.0516 -0.0125456 0)
(10.055 -0.0129496 0)
(10.0582 -0.0133617 0)
(10.0612 -0.0137709 0)
(10.0002 -0.00170358 0)
(10.0015 -0.0050012 0)
(10.0041 -0.00792384 0)
(10.0078 -0.0102718 0)
(10.012 -0.0120659 0)
(10.0165 -0.0134564 0)
(10.021 -0.0145494 0)
(10.0256 -0.0154018 0)
(10.0301 -0.0160705 0)
(10.0344 -0.0166142 0)
(10.0386 -0.0170774 0)
(10.0427 -0.0174887 0)
(10.0466 -0.0178674 0)
(10.0503 -0.0182272 0)
(10.0538 -0.0185774 0)
(10.0571 -0.0189234 0)
(10.0603 -0.0192696 0)
(10.0633 -0.0196087 0)
(10.0002 -0.0023658 0)
(10.0017 -0.00703532 0)
(10.0047 -0.0111757 0)
(10.009 -0.014343 0)
(10.0137 -0.0166372 0)
(10.0185 -0.0183688 0)
(10.0234 -0.0196977 0)
(10.0282 -0.0206948 0)
(10.0329 -0.0214416 0)
(10.0374 -0.0220191 0)
(10.0417 -0.0224839 0)
(10.0458 -0.0228728 0)
(10.0497 -0.0232121 0)
(10.0534 -0.0235214 0)
(10.0569 -0.0238138 0)
(10.0602 -0.0240969 0)
(10.0634 -0.0243762 0)
(10.0664 -0.0246473 0)
(10.0002 -0.00298561 0)
(10.0018 -0.00909513 0)
(10.0054 -0.0144494 0)
(10.0105 -0.0183374 0)
(10.0159 -0.0210803 0)
(10.0212 -0.0231013 0)
(10.0263 -0.0245558 0)
(10.0314 -0.0255688 0)
(10.0363 -0.0262947 0)
(10.041 -0.0268433 0)
(10.0454 -0.0272712 0)
(10.0495 -0.027614 0)
(10.0535 -0.027901 0)
(10.0572 -0.0281548 0)
(10.0607 -0.0283894 0)
(10.0641 -0.0286132 0)
(10.0672 -0.0288318 0)
(10.0702 -0.0290426 0)
(10.0001 -0.00353197 0)
(10.0018 -0.0115499 0)
(10.0063 -0.017886 0)
(10.0123 -0.0219834 0)
(10.0183 -0.02505 0)
(10.0241 -0.027459 0)
(10.0297 -0.0290967 0)
(10.0351 -0.0301063 0)
(10.0402 -0.0307584 0)
(10.0449 -0.0312177 0)
(10.0494 -0.031552 0)
(10.0537 -0.0318017 0)
(10.0577 -0.0320008 0)
(10.0614 -0.0321732 0)
(10.065 -0.0323323 0)
(10.0683 -0.0324855 0)
(10.0714 -0.0326363 0)
(10.0744 -0.0327813 0)
(9.99991 -0.00338091 0)
(10.0016 -0.0149674 0)
(10.0073 -0.0227253 0)
(10.0142 -0.0262371 0)
(10.0206 -0.0288241 0)
(10.0269 -0.0311894 0)
(10.0331 -0.0329106 0)
(10.039 -0.0339985 0)
(10.0445 -0.0346981 0)
(10.0495 -0.0351618 0)
(10.0541 -0.03546 0)
(10.0584 -0.0356469 0)
(10.0624 -0.0357687 0)
(10.0661 -0.0358562 0)
(10.0695 -0.0359276 0)
(10.0727 -0.0359927 0)
(10.0756 -0.0360563 0)
(10.0783 -0.036117 0)
(9.9986 -0.000398207 0)
(9.99909 -0.0157559 0)
(10.0075 -0.0274292 0)
(10.0166 -0.0324902 0)
(10.0238 -0.0348667 0)
(10.0306 -0.0362224 0)
(10.0376 -0.0369741 0)
(10.0441 -0.0374406 0)
(10.0499 -0.0377891 0)
(10.055 -0.0380362 0)
(10.0596 -0.0381813 0)
(10.0637 -0.0382494 0)
(10.0672 -0.0382706 0)
(10.0704 -0.038266 0)
(10.0732 -0.038251 0)
(10.0756 -0.0382339 0)
(10.0778 -0.0382185 0)
(10.0796 -0.0382028 0)
(9.99488 0.0013355 0)
(9.99288 -0.00809226 0)
(10.006 -0.0203511 0)
(10.0202 -0.0322759 0)
(10.0307 -0.0404778 0)
(10.0393 -0.0441489 0)
(10.0467 -0.045061 0)
(10.0529 -0.044916 0)
(10.0578 -0.0444488 0)
(10.0617 -0.043853 0)
(10.0647 -0.0432082 0)
(10.0668 -0.0425716 0)
(10.0683 -0.0419773 0)
(10.0691 -0.0414336 0)
(10.0695 -0.04095 0)
(10.0693 -0.0405231 0)
(10.0689 -0.0401501 0)
(10.0681 -0.0398056 0)
(9.99473 -0.0305614 0)
(9.99925 -0.0228716 0)
(10.0147 -0.00263498 0)
(10.0304 -0.00190887 0)
(10.0434 -0.0116581 0)
(10.0533 -0.0209215 0)
(10.0594 -0.0272782 0)
(10.0619 -0.0315057 0)
(10.0615 -0.0342802 0)
(10.0591 -0.0359763 0)
(10.0551 -0.036908 0)
(10.0498 -0.0373416 0)
(10.0435 -0.0374673 0)
(10.0365 -0.0374049 0)
(10.029 -0.0372449 0)
(10.021 -0.0370424 0)
(10.0129 -0.0368625 0)
(10.0047 -0.0366737 0)
(10.0273 -0.182758 0)
(10.0763 -0.288313 0)
(10.0872 -0.247755 0)
(10.0777 -0.186519 0)
(10.0664 -0.140296 0)
(10.0538 -0.108221 0)
(10.0365 -0.0858809 0)
(10.0145 -0.0704206 0)
(9.9894 -0.0596515 0)
(9.96237 -0.0518774 0)
(9.9344 -0.0460551 0)
(9.90609 -0.0415575 0)
(9.87792 -0.0380016 0)
(9.85022 -0.0351267 0)
(9.82323 -0.0327607 0)
(9.79707 -0.0308401 0)
(9.77198 -0.0293241 0)
(9.74799 -0.0285055 0)
(9.93574 0.689319 0)
(9.86861 0.609605 0)
(9.76454 0.380623 0)
(9.62665 0.217442 0)
(9.4859 0.119268 0)
(9.35722 0.0631872 0)
(9.2427 0.031576 0)
(9.14116 0.0136164 0)
(9.05148 0.00326345 0)
(8.97251 -0.00279776 0)
(8.90262 -0.0063533 0)
(8.84045 -0.00847256 0)
(8.78476 -0.00972345 0)
(8.73465 -0.0104696 0)
(8.68923 -0.010973 0)
(8.64789 -0.0112427 0)
(8.6097 -0.01145 0)
(8.57436 -0.012111 0)
(0.00704849 -0.0162105 -8.41031e-19)
(0.0206592 -0.019962 6.42419e-19)
(0.0297569 -0.0130333 0)
(0.0332192 -0.00340286 0)
(0.0304203 0.00530863 0)
(0.0226428 0.0117923 -2.88416e-19)
(0.0111548 0.0160617 0)
(-0.00298291 0.018623 0)
(-0.0189813 0.0200683 0)
(-0.0363358 0.0208806 0)
(-0.0547116 0.0213739 1.5724e-19)
(-0.0738989 0.0217211 0)
(-0.0937719 0.0220094 0)
(-0.114249 0.0222746 0)
(-0.135273 0.0225321 0)
(-0.156801 0.0227906 1.03007e-19)
(-0.178816 0.0230712 0)
(-0.201305 0.0234202 0)
(-0.224278 0.0239097 0)
(-0.247817 0.0246186 0)
(-0.272015 0.0256777 0)
(-0.296946 0.0271889 0)
(-0.32277 0.0290117 0)
(-0.349575 0.0310772 7.93802e-20)
(-0.377242 0.033192 -7.87163e-20)
(-0.405578 0.0299945 7.71094e-20)
(-0.434086 0.0195905 7.44422e-20)
(-0.460439 0.0166596 0)
(-0.486909 0.0250662 0)
(-0.517519 0.0357095 -6.64141e-20)
(-0.550437 0.0510354 -6.44151e-20)
(-0.586175 0.0723808 0)
(-0.626442 0.0593744 0)
(-0.667269 0.0344912 -9.33333e-20)
(-0.702577 0.0437543 0)
(-0.742788 0.0410339 0)
(-0.781607 0.0275801 7.98492e-20)
(-0.817595 0.0262627 0)
(-0.853211 0.0343693 7.51591e-20)
(-0.892657 0.0351856 1.4558e-19)
(-0.931826 0.035294 0)
(-0.971208 0.0352204 0)
(-1.0107 0.0351227 0)
(-1.05029 0.0349637 0)
(-1.08991 0.034762 0)
(-1.12954 0.0345229 1.2173e-19)
(-1.16913 0.0342603 1.18553e-19)
(-1.20867 0.0339813 1.15564e-19)
(-1.24813 0.0336913 0)
(-1.28751 0.0333938 -1.10085e-19)
(-1.32678 0.03309 0)
(-1.36595 0.0327809 1.05183e-19)
(-1.405 0.0324662 1.02921e-19)
(-1.4439 0.0321458 0)
(-1.48266 0.0318179 0)
(-1.52125 0.0314817 0)
(-1.55967 0.0311354 9.49064e-20)
(-1.59787 0.030778 0)
(-1.63586 0.0304076 0)
(-1.6736 0.0300228 0)
(-1.71107 0.0296222 0)
(-1.74824 0.0292047 0)
(-1.78507 0.0287687 0)
(-1.82155 0.0283129 0)
(-1.85764 0.0278362 0)
(-1.8933 0.0273377 -8.11889e-20)
(-1.9285 0.0268164 0)
(-1.96319 0.0262718 0)
(-1.99734 0.0257032 7.75082e-20)
(-2.03091 0.0251103 7.63509e-20)
(-2.06385 0.0244924 0)
(-2.09613 0.0238492 -7.41259e-20)
(-2.12769 0.0231803 7.30531e-20)
(-2.15849 0.0224855 0)
(-2.18849 0.0217647 -7.09742e-20)
(-2.21764 0.0210177 0)
(-2.24589 0.020245 0)
(-2.27319 0.0194462 6.79911e-20)
(-2.29949 0.0186212 0)
(-2.32474 0.0177686 -6.60689e-20)
(-2.34889 0.0168879 0)
(-2.37188 0.0159771 6.41816e-20)
(-2.39367 0.0150336 6.32464e-20)
(-2.41421 0.0140532 6.23141e-20)
(-2.43343 0.0130315 1.22767e-19)
(-2.45127 0.0119613 -1.20905e-19)
(-2.46767 0.0108352 0)
(-2.48257 0.00964449 0)
(-2.49588 0.00838253 0)
(-2.50753 0.00704761 -1.13387e-19)
(-2.51743 0.00565092 -1.11482e-19)
(-2.52549 0.0042263 1.09566e-19)
(-2.53158 0.00282085 0)
(-2.53557 0.00147824 -1.05697e-19)
(-2.53734 0.000272241 -1.03672e-19)
(-2.53743 -0.000820202 -1.01604e-19)
(-2.53576 -0.00188689 0)
(-2.53237 -0.00294709 0)
(-2.52725 -0.00401033 0)
(-2.52038 -0.00507708 -9.28078e-20)
(-2.51175 -0.00614636 0)
(-2.50133 -0.00721734 0)
(-2.48912 -0.00828874 8.55442e-20)
(-2.47511 -0.00935918 0)
(-2.45929 -0.0104273 0)
(-2.44166 -0.0114911 7.75848e-20)
(-2.42224 -0.0125491 0)
(-2.40101 -0.0135987 0)
(-2.37801 -0.0146381 -6.88164e-20)
(-2.35324 -0.0156638 -6.5695e-20)
(-2.32673 -0.0166745 0)
(-2.29851 -0.0176658 5.9131e-20)
(-2.2686 -0.0186366 0)
(-2.23705 -0.0195825 -5.21146e-20)
(-2.20389 -0.0205025 0)
(-2.16918 -0.0213916 -4.46189e-20)
(-2.13297 -0.0222487 -4.06838e-20)
(-2.09532 -0.0230685 0)
(-2.05629 -0.0238495 0)
(-2.01595 -0.0245836 0)
(-1.97435 -0.0252815 0)
(-1.93157 -0.0259456 0)
(-1.88767 -0.0265586 0)
(-1.84275 -0.0271233 0)
(-1.7969 -0.02765 -4.37569e-21)
(-1.75019 -0.0281224 -7.94611e-22)
(-1.70273 -0.0285475 0)
(-1.65459 -0.0289208 0)
(-1.60585 -0.0292414 0)
(-1.5566 -0.0295029 0)
(-1.50695 -0.0297081 -5.76147e-20)
(-1.45698 -0.0298508 0)
(-1.40679 -0.0299341 8.20296e-20)
(-1.35647 -0.0299537 -9.4658e-20)
(-1.30612 -0.0299125 0)
(-1.25582 -0.0298082 0)
(-1.20567 -0.0296416 0)
(-1.15573 -0.0294101 1.47889e-19)
(-1.1061 -0.0291142 1.61866e-19)
(-1.05684 -0.0287601 0)
(-1.00805 -0.0283546 1.9061e-19)
(-0.959786 -0.0279058 2.05367e-19)
(-0.912106 -0.0274171 -2.20374e-19)
(-0.865052 -0.0268903 0)
(-0.818665 -0.026327 0)
(-0.772978 -0.025732 -2.66858e-19)
(-0.728018 -0.0251092 0)
(-0.6838 -0.0244645 0)
(-0.640334 -0.0238012 0)
(-0.597616 -0.0231263 0)
(-0.555635 -0.0224447 3.49158e-19)
(-0.51437 -0.0217649 3.66379e-19)
(-0.473787 -0.021091 0)
(-0.433844 -0.0204315 4.01707e-19)
(-0.39449 -0.0197941 0)
(-0.355656 -0.019188 0)
(-0.31727 -0.0186181 4.57381e-19)
(-0.279244 -0.0180978 0)
(-0.241481 -0.0176367 4.96899e-19)
(-0.203871 -0.0172421 0)
(-0.1663 -0.0169285 0)
(-0.128613 -0.016725 5.61677e-19)
(-0.0906726 -0.0166557 0)
(-0.0524013 -0.0167241 6.10428e-19)
(-0.0136721 -0.016869 0)
(0.0253472 -0.0168511 0)
(0.0640454 -0.0165026 0)
(0.102955 -0.0161325 -6.40496e-19)
(0.143011 -0.0160224 0)
(0.184466 -0.0161633 6.1258e-19)
(0.227732 -0.016519 0)
(0.273129 -0.0170349 0)
(0.320922 -0.0176703 0)
(0.371271 -0.0183854 0)
(0.424241 -0.0191161 0)
(0.479448 -0.0197289 0)
(0.536949 -0.019942 0)
(0.591768 -0.019174 -1.04017e-18)
(0.652486 -0.0159727 0)
(0.659512 0.00258183 0)
(0.00457149 -0.0413427 1.88277e-18)
(0.00822435 -0.031572 -9.85486e-19)
(0.00579595 -0.013447 0)
(0.000161746 0.00374936 2.98361e-19)
(-0.00807403 0.0186084 0)
(-0.0188807 0.0305578 1.10743e-19)
(-0.0320994 0.0396282 -2.00917e-19)
(-0.0475393 0.0462392 -1.84593e-19)
(-0.0649287 0.0509657 0)
(-0.0839741 0.0543628 -1.58969e-19)
(-0.104419 0.056874 -7.43991e-20)
(-0.126062 0.0588137 0)
(-0.14876 0.060388 0)
(-0.172421 0.0617262 0)
(-0.196995 0.0629088 0)
(-0.222475 0.0639888 -5.74208e-20)
(-0.24888 0.0650077 0)
(-0.276247 0.0660075 1.0702e-19)
(-0.304638 0.0670342 0)
(-0.33412 0.0681412 0)
(-0.364715 0.0694027 -1.00135e-19)
(-0.396459 0.0708925 0)
(-0.429414 0.0726178 9.83153e-20)
(-0.463537 0.0745328 -4.90959e-20)
(-0.498484 0.0765485 4.90032e-20)
(-0.534736 0.078178 -4.85878e-20)
(-0.573026 0.079199 -4.76702e-20)
(-0.613353 0.0804903 0)
(-0.654644 0.0825559 0)
(-0.695177 0.0847217 4.50812e-20)
(-0.735408 0.0860858 -4.47902e-20)
(-0.773488 0.087237 0)
(-0.812975 0.0879687 0)
(-0.85282 0.0887056 4.62422e-20)
(-0.892729 0.0907845 0)
(-0.930745 0.091497 0)
(-0.96962 0.0912462 -4.02498e-20)
(-1.00926 0.0911306 0)
(-1.04851 0.0914085 3.79661e-20)
(-1.08647 0.0913532 -7.43647e-20)
(-1.12401 0.0909623 0)
(-1.1612 0.0903852 0)
(-1.19808 0.0896746 -1.38683e-19)
(-1.23467 0.0888749 -1.35772e-19)
(-1.27101 0.0880107 -1.33006e-19)
(-1.30711 0.0871019 6.50277e-20)
(-1.34298 0.0861622 -6.40936e-20)
(-1.37863 0.0852014 -1.88375e-19)
(-1.41406 0.0842246 1.23192e-19)
(-1.44927 0.0832353 6.06616e-20)
(-1.48424 0.0822339 0)
(-1.51898 0.0812203 -5.86081e-20)
(-1.55347 0.0801926 5.73287e-20)
(-1.5877 0.0791491 0)
(-1.62166 0.0780867 0)
(-1.65533 0.0770024 0)
(-1.68869 0.075893 -5.41133e-20)
(-1.72173 0.0747557 0)
(-1.75442 0.0735871 1.04741e-19)
(-1.78674 0.0723846 0)
(-1.81867 0.0711452 1.01746e-19)
(-1.85018 0.069867 0)
(-1.88124 0.0685472 -9.89113e-20)
(-1.91183 0.0671838 0)
(-1.94191 0.0657748 9.62133e-20)
(-1.97145 0.0643184 -4.73205e-20)
(-2.00043 0.0628136 0)
(-2.02881 0.0612593 -9.23756e-20)
(-2.05655 0.0596549 -4.56958e-20)
(-2.08362 0.0579996 -4.50854e-20)
(-2.10999 0.0562931 0)
(-2.13562 0.054535 -4.36607e-20)
(-2.16046 0.0527252 -4.32999e-20)
(-2.18449 0.0508636 0)
(-2.20767 0.0489506 4.21372e-20)
(-2.22995 0.0469865 -8.29282e-20)
(-2.2513 0.0449727 0)
(-2.27168 0.0429097 -4.04154e-20)
(-2.29104 0.0407987 0)
(-2.30935 0.0386397 1.17659e-19)
(-2.32657 0.0364338 0)
(-2.34266 0.0341814 -1.14232e-19)
(-2.35757 0.0318832 -3.75425e-20)
(-2.37126 0.0295388 3.68502e-20)
(-2.38371 0.0271488 7.25492e-20)
(-2.39486 0.0247121 -7.13874e-20)
(-2.4047 0.0222276 0)
(-2.41317 0.0196919 0)
(-2.42026 0.0171001 0)
(-2.42595 0.0144443 1.99901e-19)
(-2.43025 0.0117187 6.53781e-20)
(-2.43319 0.00893322 -6.40929e-20)
(-2.43483 0.00612489 0)
(-2.43526 0.00335844 -6.15234e-20)
(-2.43458 0.000720238 6.00679e-20)
(-2.43237 -0.00180469 5.86573e-20)
(-2.42856 -0.00428935 0)
(-2.42309 -0.00675074 0)
(-2.41594 -0.00919741 0)
(-2.40707 -0.0116296 5.27243e-20)
(-2.39648 -0.0140442 0)
(-2.38414 -0.0164371 -9.94814e-20)
(-2.37005 -0.0188032 -1.44194e-19)
(-2.3542 -0.0211381 9.29644e-20)
(-2.33658 -0.0234372 0)
(-2.3172 -0.0256957 4.33304e-20)
(-2.29606 -0.0279091 0)
(-2.27318 -0.0300719 7.90259e-20)
(-2.24856 -0.0321795 -3.79889e-20)
(-2.22222 -0.034226 -3.61277e-20)
(-2.1942 -0.0362068 0)
(-2.16452 -0.0381156 -9.53282e-20)
(-2.13321 -0.0399482 5.97942e-20)
(-2.10031 -0.0416983 2.74317e-20)
(-2.06587 -0.0433624 0)
(-2.02994 -0.0449342 2.31796e-20)
(-1.99257 -0.0464113 6.39381e-20)
(-1.95382 -0.0477884 0)
(-1.91376 -0.049063 3.40532e-20)
(-1.87244 -0.0502299 2.94996e-20)
(-1.82994 -0.0512886 2.48757e-20)
(-1.78633 -0.0522414 0)
(-1.74169 -0.0530931 0)
(-1.69611 -0.0538314 0)
(-1.64966 -0.0544543 -3.4731e-21)
(-1.60244 -0.0549705 1.81337e-22)
(-1.55453 -0.0553896 0)
(-1.50602 -0.0556991 9.10219e-21)
(-1.45699 -0.0559021 1.41265e-20)
(-1.40754 -0.0559937 0)
(-1.35775 -0.0559787 2.55157e-20)
(-1.30772 -0.0558535 5.86538e-20)
(-1.25753 -0.0556241 -3.56889e-20)
(-1.20729 -0.0552892 -3.82251e-20)
(-1.15707 -0.0548556 0)
(-1.10697 -0.0543251 0)
(-1.05707 -0.0537033 0)
(-1.00744 -0.052991 -6.09071e-20)
(-0.958142 -0.0521934 6.34204e-20)
(-0.909255 -0.0513189 1.39133e-19)
(-0.860846 -0.0503826 -7.56224e-20)
(-0.812977 -0.0493978 7.81177e-20)
(-0.765701 -0.0483769 8.51556e-20)
(-0.719056 -0.0473247 0)
(-0.673074 -0.0462495 0)
(-0.62778 -0.045157 -9.68518e-20)
(-0.583189 -0.0440587 0)
(-0.539308 -0.0429606 0)
(-0.496131 -0.041874 2.21868e-19)
(-0.453648 -0.040805 0)
(-0.411832 -0.0397672 1.18298e-19)
(-0.37065 -0.038767 -1.23836e-19)
(-0.330057 -0.0378167 0)
(-0.289995 -0.0369217 1.29865e-19)
(-0.250396 -0.0360984 0)
(-0.21118 -0.035351 0)
(-0.172253 -0.0346913 -1.41472e-19)
(-0.133507 -0.0341285 2.88254e-19)
(-0.094822 -0.03368 -1.47696e-19)
(-0.056066 -0.0333449 0)
(-0.0170929 -0.0331356 0)
(0.0222018 -0.0330379 1.5516e-19)
(0.0618422 -0.0330056 0)
(0.102079 -0.0330422 1.56022e-19)
(0.143261 -0.0331596 0)
(0.185727 -0.0332798 0)
(0.229838 -0.0334607 0)
(0.275823 -0.0339049 1.55461e-19)
(0.323772 -0.0346925 0)
(0.373846 -0.0357786 -1.55013e-19)
(0.426262 -0.0371103 0)
(0.481202 -0.0386135 0)
(0.538814 -0.0402207 3.08764e-19)
(0.599109 -0.0418366 -3.08897e-19)
(0.661979 -0.0433181 0)
(0.726949 -0.0444314 0)
(0.79368 -0.0446243 0)
(0.858704 -0.0430001 9.44925e-19)
(0.926559 -0.0362082 0)
(0.96613 -0.013054 -6.59986e-19)
(-0.00246333 -0.0434064 -1.02403e-21)
(-0.00758661 -0.0196873 9.39387e-19)
(-0.0163186 0.00405507 0)
(-0.027275 0.0248268 -3.75264e-19)
(-0.0397151 0.0427541 0)
(-0.0534007 0.0579023 0)
(-0.0684353 0.0703568 3.33123e-23)
(-0.0849464 0.0803455 1.16726e-19)
(-0.102975 0.0882364 1.10013e-19)
(-0.122483 0.0944614 1.04432e-19)
(-0.143385 0.0994404 0)
(-0.16558 0.103533 0)
(-0.188979 0.107024 -9.13881e-20)
(-0.213511 0.110127 -1.75987e-19)
(-0.239132 0.113001 1.69979e-19)
(-0.265822 0.115765 0)
(-0.293579 0.118517 1.60096e-19)
(-0.322411 0.121337 -7.81007e-20)
(-0.352326 0.124294 0)
(-0.383326 0.127442 1.50062e-19)
(-0.415379 0.130808 7.39323e-20)
(-0.448405 0.134375 -1.45901e-19)
(-0.482273 0.138063 -7.20599e-20)
(-0.516819 0.141681 0)
(-0.551896 0.144939 1.39632e-19)
(-0.587562 0.147434 1.36699e-19)
(-0.624043 0.149091 0)
(-0.661264 0.150868 1.30186e-19)
(-0.69851 0.153053 0)
(-0.734988 0.155334 1.24492e-19)
(-0.770546 0.157581 6.14044e-20)
(-0.804992 0.158984 0)
(-0.839073 0.158591 0)
(-0.87325 0.157084 0)
(-0.907189 0.155817 0)
(-0.940632 0.153704 0)
(-0.974416 0.151041 0)
(-1.00859 0.149004 1.0336e-19)
(-1.04254 0.14753 -1.51605e-19)
(-1.0759 0.145974 0)
(-1.10894 0.14438 0)
(-1.14172 0.142769 0)
(-1.17429 0.141145 1.48486e-22)
(-1.20667 0.139506 9.13467e-20)
(-1.23887 0.137854 1.79154e-19)
(-1.27091 0.136191 -1.75916e-19)
(-1.3028 0.134518 -8.63234e-20)
(-1.33453 0.132836 8.50021e-20)
(-1.36611 0.131145 -1.70667e-22)
(-1.39753 0.129444 8.20244e-20)
(-1.42878 0.127731 0)
(-1.45987 0.126 7.94162e-20)
(-1.49077 0.124249 -1.7521e-22)
(-1.52148 0.122473 0)
(-1.55198 0.120667 0)
(-1.58225 0.118825 -7.4696e-20)
(-1.61228 0.116944 0)
(-1.64204 0.115018 0)
(-1.67152 0.113043 7.1332e-20)
(-1.7007 0.111014 1.40991e-19)
(-1.72955 0.108929 -6.96795e-20)
(-1.75804 0.106782 0)
(-1.78615 0.104572 6.77686e-20)
(-1.81385 0.102295 0)
(-1.84112 0.0999489 6.56108e-20)
(-1.86792 0.0975313 6.50361e-20)
(-1.89422 0.0950407 -1.28002e-19)
(-1.91999 0.0924759 -6.29853e-20)
(-1.9452 0.0898359 0)
(-1.96982 0.08712 1.22874e-19)
(-1.9938 0.084328 0)
(-2.01712 0.0814594 1.7945e-19)
(-2.03973 0.0785147 1.17899e-19)
(-2.06161 0.0754938 1.16263e-19)
(-2.08271 0.0723977 -1.14635e-19)
(-2.103 0.0692271 1.69629e-19)
(-2.12244 0.0659837 0)
(-2.14099 0.0626686 0)
(-2.15861 0.0592835 -1.08147e-19)
(-2.17526 0.0558295 -1.59867e-19)
(-2.1909 0.0523084 0)
(-2.2055 0.0487217 5.16958e-20)
(-2.21902 0.0450714 0)
(-2.23141 0.0413592 -1.49953e-19)
(-2.24265 0.0375879 -9.89078e-23)
(-2.2527 0.0337604 8.25657e-23)
(-2.26153 0.0298806 9.48446e-20)
(-2.26911 0.0259534 0)
(-2.27542 0.0219861 -9.13592e-20)
(-2.28043 0.0179885 -1.06496e-23)
(-2.28415 0.0139752 0)
(-2.28656 0.0099676 0)
(-2.28763 0.00598763 0)
(-2.28732 0.00204591 8.21062e-20)
(-2.28556 -0.00188327 0)
(-2.28229 -0.00581743 0)
(-2.27745 -0.00974405 0)
(-2.27101 -0.0136563 0)
(-2.26294 -0.0175492 0)
(-2.25322 -0.0214166 6.98942e-20)
(-2.24183 -0.0252516 0)
(-2.22876 -0.0290466 6.52662e-20)
(-2.21399 -0.0327934 6.29961e-20)
(-2.19752 -0.0364845 -6.0686e-20)
(-2.17935 -0.0401115 0)
(-2.15948 -0.0436671 -5.59434e-20)
(-2.13791 -0.0471427 0)
(-2.11465 -0.0505304 -5.10353e-20)
(-2.08972 -0.0538213 4.85191e-20)
(-2.06315 -0.0570074 1.38781e-19)
(-2.03494 -0.0600795 0)
(-2.00514 -0.0630298 1.23169e-19)
(-1.97378 -0.0658496 3.90874e-20)
(-1.9409 -0.0685313 0)
(-1.90653 -0.0710669 6.62938e-20)
(-1.87074 -0.0734497 6.07646e-20)
(-1.83357 -0.0756731 -8.21456e-20)
(-1.7951 -0.0777319 0)
(-1.75536 -0.0796198 -2.12497e-20)
(-1.71444 -0.0813314 -1.8345e-20)
(-1.6724 -0.0828634 -4.7608e-20)
(-1.62931 -0.084217 0)
(-1.58526 -0.085401 0)
(-1.54032 -0.0864133 0)
(-1.49458 -0.0872398 -4.9867e-21)
(-1.44812 -0.0878869 0)
(-1.40103 -0.0883695 0)
(-1.35339 -0.0886828 -5.49956e-21)
(-1.30528 -0.0888241 -8.50348e-21)
(-1.2568 -0.088793 0)
(-1.20802 -0.0885921 0)
(-1.15903 -0.0882227 -3.49108e-20)
(-1.10993 -0.0876902 0)
(-1.06079 -0.0869988 4.66649e-20)
(-1.01171 -0.0861564 5.09329e-20)
(-0.962752 -0.08517 0)
(-0.914001 -0.0840476 0)
(-0.865523 -0.0827953 -6.79569e-20)
(-0.817381 -0.0814226 -1.46149e-21)
(-0.769633 -0.0799431 -1.43632e-21)
(-0.722342 -0.0783767 0)
(-0.675561 -0.0767427 -1.80378e-19)
(-0.629336 -0.0750589 0)
(-0.5837 -0.0733364 0)
(-0.538677 -0.0715885 0)
(-0.494283 -0.0698265 1.10585e-19)
(-0.450525 -0.0680665 0)
(-0.407402 -0.0663202 -2.37085e-19)
(-0.3649 -0.0646032 -1.24008e-19)
(-0.322996 -0.0629266 0)
(-0.281659 -0.0613087 -1.32239e-19)
(-0.240844 -0.0597612 0)
(-0.200497 -0.0583004 0)
(-0.160552 -0.0569368 -4.28713e-19)
(-0.12093 -0.0556913 2.92228e-19)
(-0.0815435 -0.0545736 0)
(-0.0422879 -0.0535996 3.05219e-19)
(-0.00304377 -0.0527791 -1.56222e-19)
(0.0362834 -0.052122 0)
(0.0758193 -0.0516303 0)
(0.115757 -0.0513234 0)
(0.156292 -0.0512005 -4.84878e-19)
(0.197626 -0.0512794 0)
(0.239986 -0.0515811 -1.63157e-19)
(0.283593 -0.0520988 0)
(0.328725 -0.0528037 0)
(0.375703 -0.0537398 0)
(0.424781 -0.0549934 0)
(0.47609 -0.0566121 0)
(0.52977 -0.0585759 0)
(0.585964 -0.0608306 -3.31746e-19)
(0.644801 -0.0632869 0)
(0.706353 -0.0658406 -1.67496e-19)
(0.770577 -0.0683527 5.04249e-19)
(0.837327 -0.0706072 0)
(0.906137 -0.0722448 0)
(0.976655 -0.0725586 -3.43944e-19)
(1.04635 -0.0703316 -3.49565e-19)
(1.11906 -0.0621605 3.55083e-19)
(1.17619 -0.0394252 3.6687e-19)
(-0.00856139 -0.0271471 -2.84483e-18)
(-0.0192911 0.00445165 -1.12267e-18)
(-0.0320028 0.0309073 -4.05493e-19)
(-0.0467004 0.0533623 -1.4552e-19)
(-0.062291 0.0728385 0)
(-0.0784633 0.0897156 2.10834e-19)
(-0.0953734 0.104169 -9.63498e-20)
(-0.11322 0.116376 0)
(-0.132142 0.126586 -8.52184e-20)
(-0.152216 0.135111 0)
(-0.173465 0.142287 1.55953e-19)
(-0.195875 0.148437 0)
(-0.219413 0.15384 7.24976e-20)
(-0.244034 0.158727 1.40369e-19)
(-0.269695 0.163281 -1.36206e-19)
(-0.296352 0.167643 0)
(-0.323963 0.171918 -1.29091e-19)
(-0.35248 0.176182 0)
(-0.381839 0.180483 0)
(-0.411962 0.184832 -1.20934e-19)
(-0.442737 0.189201 0)
(-0.474026 0.193494 1.56029e-23)
(-0.505666 0.197553 0)
(-0.537498 0.201171 0)
(-0.569416 0.204129 -7.05479e-23)
(-0.601398 0.206264 -1.07176e-19)
(-0.633468 0.207646 -1.04246e-19)
(-0.665568 0.20864 -1.01523e-19)
(-0.697446 0.209489 0)
(-0.728866 0.210176 -1.92498e-19)
(-0.759731 0.210555 0)
(-0.790091 0.210345 -9.19391e-20)
(-0.820175 0.209382 0)
(-0.850172 0.20784 0)
(-0.88006 0.20596 8.5807e-20)
(-0.909856 0.203641 0)
(-0.939715 0.201083 -8.18522e-20)
(-0.969615 0.198626 -4.329e-23)
(-0.999386 0.19632 1.56842e-19)
(-1.02897 0.194026 -1.53598e-19)
(-1.05841 0.191737 0)
(-1.08774 0.189461 0)
(-1.11696 0.187201 -7.23796e-20)
(-1.14609 0.184955 0)
(-1.17512 0.18272 -6.98966e-20)
(-1.20406 0.180491 6.86852e-20)
(-1.23291 0.178264 6.75214e-20)
(-1.26166 0.176035 0)
(-1.29032 0.173798 -6.5323e-20)