# vtk DataFile Version 2.0
track0
ASCII
DATASET POLYDATA
POINTS 12015 float
-0.0205 0.001 1e-05
-0.0202034 0.00100022 1e-05
-0.0199069 0.00100067 1e-05
-0.0196103 0.00100132 1e-05
-0.0193137 0.00100219 1e-05
-0.0190172 0.00100326 1e-05
-0.0187132 0.00100467 1e-05
-0.0184093 0.00100589 1e-05
-0.0181054 0.0010071 1e-05
-0.0178015 0.00100832 1e-05
-0.0174976 0.00100954 1e-05
-0.0172058 0.00101083 1e-05
-0.016914 0.00101194 1e-05
-0.0166222 0.00101304 1e-05
-0.0163305 0.00101414 1e-05
-0.0160387 0.00101524 1e-05
-0.0157586 0.00101638 1e-05
-0.0154784 0.00101746 1e-05
-0.0151983 0.00101858 1e-05
-0.0149182 0.00101973 1e-05
-0.0146381 0.00102092 1e-05
-0.014376 0.0010221 1e-05
-0.0141139 0.00102328 1e-05
-0.0138518 0.0010245 1e-05
-0.0135898 0.00102574 1e-05
-0.0133685 0.00102682 1e-05
-0.0133535 0.00102689 1e-05
-0.0133385 0.00102697 1e-05
-0.0133235 0.00102704 1e-05
-0.0133085 0.00102712 1e-05
-0.0132934 0.00102719 1e-05
-0.0130353 0.00102848 1e-05
-0.0127771 0.00102979 1e-05
-0.0125189 0.00103111 1e-05
-0.0122607 0.00103245 1e-05
-0.0120025 0.00103381 1e-05
-0.0117547 0.00103512 1e-05
-0.0115068 0.00103644 1e-05
-0.0112589 0.00103777 1e-05
-0.0110111 0.0010391 1e-05
-0.0107632 0.00104043 1e-05
-0.0105252 0.00104172 1e-05
-0.0102873 0.001043 1e-05
-0.0100493 0.00104429 1e-05
-0.00981133 0.00104557 1e-05
-0.00957337 0.00104686 1e-05
-0.00934491 0.00104809 1e-05
-0.00911645 0.00104932 1e-05
-0.00888799 0.00105055 1e-05
-0.00865954 0.00105178 1e-05
-0.00843108 0.001053 1e-05
-0.00821175 0.00105417 1e-05
-0.00799242 0.00105534 1e-05
-0.00777309 0.00105651 1e-05
-0.00755376 0.00105767 1e-05
-0.00733443 0.00105883 1e-05
-0.00712387 0.00105994 1e-05
-0.0069133 0.00106104 1e-05
-0.00670273 0.00106215 1e-05
-0.00649216 0.00106325 1e-05
-0.0062816 0.00106435 1e-05
-0.00607944 0.00106539 1e-05
-0.00587729 0.00106644 1e-05
-0.00567514 0.00106749 1e-05
-0.00547298 0.00106853 1e-05
-0.00527083 0.00106958 1e-05
-0.00507675 0.00107057 1e-05
-0.00488267 0.00107156 1e-05
-0.0046886 0.00107256 1e-05
-0.00449452 0.00107355 1e-05
-0.00430044 0.00107455 1e-05
-0.00411412 0.0010755 1e-05
-0.0039278 0.00107645 1e-05
-0.00374147 0.0010774 1e-05
-0.00355515 0.00107836 1e-05
-0.00336883 0.00107932 1e-05
-0.00318995 0.00108023 1e-05
-0.00301107 0.00108116 1e-05
-0.00283219 0.00108208 1e-05
-0.00265331 0.00108302 1e-05
-0.00247443 0.00108396 1e-05
-0.0023027 0.00108486 1e-05
-0.00213097 0.00108578 1e-05
-0.00195924 0.00108671 1e-05
-0.00178751 0.00108765 1e-05
-0.00161577 0.00108859 1e-05
-0.0014509 0.00108951 1e-05
-0.00128603 0.00109044 1e-05
-0.00112116 0.0010914 1e-05
-0.00095629 0.00109239 1e-05
-0.000791418 0.00109339 1e-05
-0.000633135 0.00109438 1e-05
-0.000474851 0.00109539 1e-05
-0.000316568 0.00109644 1e-05
-0.000158285 0.00109752 1e-05
0 0.00109863 1e-05
0.000105677 0.00109939 1e-05
0.000211355 0.00110015 1e-05
0.000317032 0.00110093 1e-05
0.000422709 0.00110171 1e-05
0.000528387 0.00110249 1e-05
0.000634886 0.00110328 1e-05
0.000741385 0.00110407 1e-05
0.000847885 0.00110484 1e-05
0.000954384 0.00110561 1e-05
0.00106088 0.00110637 1e-05
0.00116821 0.00110712 1e-05
0.00127554 0.00110786 1e-05
0.00138286 0.00110859 1e-05
0.00149019 0.0011093 1e-05
0.00159752 0.00110999 1e-05
0.00170568 0.00111067 1e-05
0.00181384 0.00111134 1e-05
0.001922 0.00111199 1e-05
0.00203016 0.00111263 1e-05
0.00213833 0.00111324 1e-05
0.00224733 0.00111385 1e-05
0.00235633 0.00111444 1e-05
0.00246533 0.00111502 1e-05
0.00257434 0.00111558 1e-05
0.00268334 0.00111612 1e-05
0.00279319 0.00111665 1e-05
0.00290304 0.00111718 1e-05
0.00301289 0.00111768 1e-05
0.00312274 0.00111817 1e-05
0.00323259 0.00111865 1e-05
0.00334329 0.00111911 1e-05
0.003454 0.00111956 1e-05
0.0035647 0.00112 1e-05
0.0036754 0.00112043 1e-05
0.00378611 0.00112084 1e-05
0.00389767 0.00112123 1e-05
0.00400924 0.00112161 1e-05
0.0041208 0.00112198 1e-05
0.00423237 0.00112234 1e-05
0.00434393 0.00112268 1e-05
0.00445636 0.00112301 1e-05
0.00456879 0.00112332 1e-05
0.00468123 0.00112363 1e-05
0.00479366 0.00112392 1e-05
0.00490609 0.0011242 1e-05
0.0050194 0.00112445 1e-05
0.0051327 0.00112471 1e-05
0.00524601 0.00112494 1e-05
0.00535932 0.00112517 1e-05
0.00547262 0.00112538 1e-05
0.00558681 0.00112557 1e-05
0.005701 0.00112576 1e-05
0.00581518 0.00112594 1e-05
0.00592937 0.0011261 1e-05
0.00604356 0.00112625 1e-05
0.00615863 0.00112638 1e-05
0.00627371 0.0011265 1e-05
0.00638878 0.00112662 1e-05
0.00650386 0.00112672 1e-05
0.00661893 0.00112681 1e-05
0.0067349 0.00112688 1e-05
0.00685087 0.00112694 1e-05
0.00696684 0.001127 1e-05
0.00708281 0.00112704 1e-05
0.00719878 0.00112707 1e-05
0.00731565 0.00112708 1e-05
0.00743252 0.00112708 1e-05
0.00754939 0.00112708 1e-05
0.00766626 0.00112706 1e-05
0.00778313 0.00112703 1e-05
0.00790091 0.00112699 1e-05
0.00801869 0.00112693 1e-05
0.00813647 0.00112687 1e-05
0.00825425 0.0011268 1e-05
0.00837203 0.00112671 1e-05
0.00843677 0.00112665 1e-05
0.00850151 0.00112659 1e-05
0.00856625 0.00112653 1e-05
0.00863098 0.00112647 1e-05
0.00869328 0.0011264 1e-05
0.00874773 0.00112634 1e-05
0.00880217 0.00112628 1e-05
0.00885662 0.00112622 1e-05
0.00891107 0.00112615 1e-05
0.00896551 0.00112608 1e-05
0.00908513 0.00112592 1e-05
0.00920475 0.00112575 1e-05
0.00932437 0.00112557 1e-05
0.00944398 0.00112538 1e-05
0.0095636 0.00112517 1e-05
0.00968415 0.00112495 1e-05
0.0098047 0.00112472 1e-05
0.00992525 0.00112448 1e-05
0.0100458 0.00112423 1e-05
0.0101663 0.00112396 1e-05
0.0102878 0.00112368 1e-05
0.0104093 0.00112339 1e-05
0.0105308 0.00112308 1e-05
0.0106523 0.00112277 1e-05
0.0107738 0.00112245 1e-05
0.0108962 0.0011221 1e-05
0.0110186 0.00112175 1e-05
0.0111411 0.00112138 1e-05
0.0112635 0.00112101 1e-05
0.0113859 0.00112062 1e-05
0.0115093 0.00112021 1e-05
0.0116327 0.00111979 1e-05
0.0117561 0.00111937 1e-05
0.0118795 0.00111893 1e-05
0.0120028 0.00111848 1e-05
0.0121272 0.001118 1e-05
0.0122515 0.00111752 1e-05
0.0123759 0.00111703 1e-05
0.0125002 0.00111653 1e-05
0.0126245 0.00111601 1e-05
0.0127498 0.00111548 1e-05
0.0128752 0.00111493 1e-05
0.0130005 0.00111437 1e-05
0.0131258 0.0011138 1e-05
0.0132511 0.00111322 1e-05
0.0133774 0.00111262 1e-05
0.0135036 0.001112 1e-05
0.0136299 0.00111138 1e-05
0.0137562 0.00111074 1e-05
0.0138825 0.00111009 1e-05
0.0140098 0.00110942 1e-05
0.014137 0.00110874 1e-05
0.0142643 0.00110804 1e-05
0.0143915 0.00110733 1e-05
0.0145188 0.00110661 1e-05
0.0146471 0.00110588 1e-05
0.0147753 0.00110512 1e-05
0.0149036 0.00110435 1e-05
0.0150318 0.00110357 1e-05
0.0151601 0.00110278 1e-05
0.0152893 0.00110198 1e-05
0.0154186 0.00110115 1e-05
0.0155478 0.00110031 1e-05
0.0156771 0.00109946 1e-05
0.0158063 0.00109859 1e-05
0.0159366 0.00109772 1e-05
0.0160668 0.00109682 1e-05
0.0161971 0.0010959 1e-05
0.0163273 0.00109497 1e-05
0.0164576 0.00109403 1e-05
0.0165889 0.00109308 1e-05
0.0167201 0.0010921 1e-05
0.0168514 0.00109111 1e-05
0.0169827 0.00109009 1e-05
0.0171139 0.00108908 1e-05
0.0172462 0.00108805 1e-05
0.0173785 0.001087 1e-05
0.0175108 0.00108592 1e-05
0.0176431 0.00108483 1e-05
0.0177754 0.00108373 1e-05
0.0179087 0.00108263 1e-05
0.018042 0.00108149 1e-05
0.0181753 0.00108033 1e-05
0.0183087 0.00107915 1e-05
0.018442 0.00107796 1e-05
0.0185763 0.00107678 1e-05
0.0187107 0.00107556 1e-05
0.018845 0.00107431 1e-05
0.0189794 0.00107304 1e-05
0.0191137 0.00107177 1e-05
0.0192491 0.0010705 1e-05
0.0193845 0.00106919 1e-05
0.0195199 0.00106784 1e-05
0.0196553 0.00106648 1e-05
0.0197907 0.00106512 1e-05
0.0199272 0.00106376 1e-05
0.0200636 0.00106236 1e-05
0.0202001 0.00106092 1e-05
0.0203365 0.00105947 1e-05
0.020473 0.00105802 1e-05
0.0206105 0.00105656 1e-05
0.020748 0.00105507 1e-05
0.0208855 0.00105353 1e-05
0.021023 0.00105198 1e-05
0.0211606 0.00105044 1e-05
0.0212991 0.00104888 1e-05
0.0214377 0.00104729 1e-05
0.0215763 0.00104565 1e-05
0.0217149 0.001044 1e-05
0.0218535 0.00104235 1e-05
0.0219931 0.00104069 1e-05
0.0221328 0.00103899 1e-05
0.0222724 0.00103725 1e-05
0.0224121 0.00103549 1e-05
0.0225517 0.00103373 1e-05
0.0226925 0.00103197 1e-05
0.0228332 0.00103016 1e-05
0.022974 0.00102831 1e-05
0.0231147 0.00102644 1e-05
0.0232555 0.00102457 1e-05
0.0233973 0.00102269 1e-05
0.0235391 0.00102077 1e-05
0.023681 0.0010188 1e-05
0.0238228 0.00101682 1e-05
0.0239647 0.00101484 1e-05
0.0241076 0.00101284 1e-05
0.0242505 0.0010108 1e-05
0.0243935 0.00100872 1e-05
0.0245364 0.00100662 1e-05
0.0246794 0.00100451 1e-05
0.0248234 0.00100239 1e-05
0.0249675 0.00100022 1e-05
0.0251115 0.000998024 1e-05
0.0252556 0.000995804 1e-05
0.0253996 0.000993573 1e-05
0.0255448 0.000991322 1e-05
0.02569 0.000989026 1e-05
0.0258351 0.000986698 1e-05
0.0259803 0.000984348 1e-05
0.0261255 0.000981982 1e-05
0.0262718 0.000979593 1e-05
0.0264181 0.000977157 1e-05
0.0265644 0.000974693 1e-05
0.0267107 0.000972205 1e-05
0.026857 0.000969697 1e-05
0.0270044 0.000967164 1e-05
0.0271519 0.000964584 1e-05
0.0272993 0.000961979 1e-05
0.0274467 0.000959349 1e-05
0.0275942 0.000956695 1e-05
0.0277428 0.000954012 1e-05
0.0278914 0.000951285 1e-05
0.0280399 0.000948533 1e-05
0.0281885 0.000945754 1e-05
0.0283371 0.00094295 1e-05
0.0284869 0.00094011 1e-05
0.0286366 0.000937229 1e-05
0.0287863 0.000934321 1e-05
0.0289361 0.000931386 1e-05
0.0290858 0.000928423 1e-05
0.0292367 0.000925418 1e-05
0.0293876 0.000922376 1e-05
0.0295385 0.000919305 1e-05
0.0296894 0.000916206 1e-05
0.0298403 0.000913079 1e-05
0.029988 0.000909994 1e-05
0.0301357 0.000906878 1e-05
0.0302833 0.000903733 1e-05
0.030431 0.000900561 1e-05
0.0305686 0.000897578 1e-05
0.0305751 0.000897438 1e-05
0.0305815 0.000897298 1e-05
0.0305879 0.000897158 1e-05
0.0305943 0.000897017 1e-05
0.0306007 0.000896877 1e-05
0.030754 0.000893522 1e-05
0.0309072 0.000890136 1e-05
0.0310605 0.00088672 1e-05
0.0312138 0.000883273 1e-05
0.031367 0.000879794 1e-05
0.0315215 0.000876262 1e-05
0.0316759 0.000872694 1e-05
0.0318304 0.000869092 1e-05
0.0319848 0.000865459 1e-05
0.0321393 0.000861792 1e-05
0.0322949 0.000858075 1e-05
0.0324506 0.000854314 1e-05
0.0326062 0.000850519 1e-05
[...]
POINT_DATA 12015
 FIELD attributes 1
U 3 12015 float
10.0004 	0.00731909 	0 10.0024 	0.0151722 	0 10.0045 	0.0221938 	0 10.0065 	0.0291712 	0 10.0085 	0.0361046 	0 10.0135 	0.0463223 	0 10.0163 	0.0402249 	0 10.0207 	0.0401871 	0 10.0251 	0.0401495 	0 10.0296 	0.0401121 	0 10.0355 	0.0445755 	0 10.0384 	0.0379416 	0 10.0424 	0.0379027 	0 10.0463 	0.0378637 	0 10.0503 	0.0378247 	0 10.0544 	0.040928 	0 10.0566 	0.0388596 	0 10.059 	0.0401756 	0 10.0614 	0.0414932 	0 10.0638 	0.0428124 	0 10.066 	0.0452734 	0 10.0675 	0.0453903 	0 10.0688 	0.0465947 	0 10.0701 	0.0478003 	0 10.0714 	0.0490069 	0 10.0725 	0.0500265 	0 10.0726 	0.0500962 	0 10.0726 	0.0501658 	0 10.0727 	0.0502355 	0 10.0728 	0.0503051 	0 10.0729 	0.0503644 	0 10.0734 	0.0510032 	0 10.0738 	0.0516353 	0 10.0743 	0.0522679 	0 10.0748 	0.0529011 	0 10.0753 	0.0533692 	0 10.0751 	0.0536809 	0 10.0747 	0.0538865 	0 10.0743 	0.0540921 	0 10.0739 	0.0542979 	0 10.0734 	0.0542647 	0 10.0729 	0.0544315 	0 10.0717 	0.0544291 	0 10.0706 	0.0544267 	0 10.0695 	0.0544243 	0 10.0678 	0.054153 	0 10.0674 	0.0542635 	0 10.0657 	0.0541594 	0 10.064 	0.0540554 	0 10.0623 	0.0539513 	0 10.0597 	0.0535621 	0 10.0596 	0.0536589 	0 10.0575 	0.0535064 	0 10.0554 	0.0533538 	0 10.0533 	0.0532012 	0 10.0496 	0.0527529 	0 10.0501 	0.0528677 	0 10.0477 	0.0527087 	0 10.0453 	0.0525497 	0 10.0428 	0.0523907 	0 10.038 	0.0519311 	0 10.0394 	0.0520957 	0 10.0367 	0.0519626 	0 10.034 	0.0518295 	0 10.0313 	0.0516963 	0 10.0254 	0.0512541 	0 10.0277 	0.051494 	0 10.0249 	0.0514277 	0 10.022 	0.0513615 	0 10.0192 	0.0512952 	0 10.012 	0.0509241 	0 10.0155 	0.0512847 	0 10.0124 	0.0513188 	0 10.0094 	0.0513529 	0 10.0064 	0.0513871 	0 9.99795 	0.0511084 	0 10.0026 	0.0516505 	0 9.99956 	0.0519316 	0 9.99649 	0.0522127 	0 9.99342 	0.052494 	0 9.98374 	0.0525145 	0 9.98982 	0.0534064 	0 9.98674 	0.0539693 	0 9.98365 	0.0545323 	0 9.98057 	0.0550955 	0 9.96959 	0.0553099 	0 9.9773 	0.0565985 	0 9.97459 	0.0580009 	0 9.97189 	0.0594034 	0 9.9692 	0.0608062 	0 9.95738 	0.0620088 	0 9.96741 	0.0641369 	7.73879e-22 9.96634 	0.0660486 	6.25106e-21 9.96528 	0.0679605 	1.17261e-20 9.96424 	0.0698726 	1.71989e-20 9.9528 	0.0708979 	1.41022e-20 9.96517 	0.0722909 	1.0668e-19 9.96511 	0.0729087 	9.96661e-20 9.96505 	0.0735265 	9.26599e-20 9.965 	0.0741443 	8.56616e-20 9.95353 	0.0737628 	-1.73939e-20 9.96647 	0.0734768 	-4.7597e-20 9.96644 	0.0726566 	-5.27288e-20 9.96641 	0.0718364 	-5.78558e-20 9.96637 	0.0710162 	-6.29781e-20 9.95446 	0.0699125 	-2.2295e-20 9.96698 	0.0688801 	-1.99022e-20 9.96597 	0.0673327 	-1.36395e-20 9.96495 	0.0657852 	-7.37821e-21 9.96393 	0.0642377 	-1.11819e-21 9.95099 	0.0626764 	8.87577e-21 9.96302 	0.0617072 	-3.90732e-21 9.96105 	0.0600621 	-2.42088e-20 9.95908 	0.0584167 	-4.45148e-20 9.95709 	0.0567711 	-6.48253e-20 9.94312 	0.054901 	-9.51093e-20 9.95481 	0.0542185 	-1.45335e-19 9.95205 	0.0527356 	-1.31989e-19 9.94928 	0.0512523 	-1.18627e-19 9.9465 	0.0497686 	-1.0525e-19 9.9316 	0.047766 	-3.16427e-20 9.94297 	0.0472457 	5.19672e-20 9.93947 	0.0458787 	6.68888e-20 9.93596 	0.0445113 	8.17915e-20 9.93243 	0.0431434 	9.66753e-20 9.91667 	0.0411138 	3.94566e-20 9.92765 	0.0406219 	-7.56283e-20 9.9234 	0.0393079 	-8.24832e-20 9.91914 	0.0379934 	-8.93087e-20 9.91487 	0.0366785 	-9.6105e-20 9.89831 	0.0347028 	-2.23134e-22 9.90876 	0.0342143 	9.19913e-20 9.90373 	0.032937 	8.19417e-20 9.8987 	0.0316593 	7.18634e-20 9.89365 	0.030381 	6.17563e-20 9.87637 	0.0284847 	-2.69576e-20 9.88611 	0.0279939 	-1.01208e-19 9.88031 	0.0267424 	-1.25607e-19 9.8745 	0.0254904 	-1.49996e-19 9.86868 	0.0242378 	-1.74373e-19 9.85086 	0.022419 	-1.41072e-19 9.8596 	0.0219515 	-1.79042e-19 9.85306 	0.0207468 	-1.65442e-19 9.8465 	0.0195415 	-1.51834e-19 9.83994 	0.0183357 	-1.38218e-19 9.82185 	0.0166029 	-8.45697e-20 9.82922 	0.0161785 	-7.33915e-20 9.82199 	0.0150394 	-5.31671e-20 9.81475 	0.0138997 	-3.29459e-20 9.80749 	0.0127593 	-1.27279e-20 9.78956 	0.0111213 	4.12322e-21 9.7951 	0.0107196 	0 9.78723 	0.00964212 	0 9.77935 	0.00856401 	0 9.77145 	0.00748523 	0 9.7542 	0.00595089 	0 9.75734 	0.00552649 	-1.47694e-20 9.74888 	0.00449835 	-3.5442e-20 9.7404 	0.0034695 	-5.61175e-20 9.73191 	0.00243994 	-7.6796e-20 9.71591 	0.00102906 	-1.00287e-19 9.71607 	0.000531259 	-1.15669e-19 9.70705 	-0.000456082 	-1.16216e-19 9.69802 	-0.00144419 	-1.16754e-19 9.68897 	-0.00243307 	-1.17283e-19 9.67487 	-0.00368745 	-1.08137e-19 9.67141 	-0.00430546 	-6.2759e-20 9.66188 	-0.00525442 	-3.11252e-20 9.65233 	-0.00620421 	4.92711e-22 9.64277 	-0.00715482 	3.20946e-20 9.63125 	-0.00821136 	5.78424e-20 9.62811 	-0.00858296 	6.20324e-20 9.62266 	-0.0090827 	6.20701e-20 9.6172 	-0.0095827 	6.21046e-20 9.61175 	-0.010083 	6.21359e-20 9.60649 	-0.0105647 	6.2163e-20 9.60183 	-0.0109891 	6.26178e-20 9.59717 	-0.0114137 	6.30719e-20 9.59251 	-0.0118385 	6.35252e-20 9.58785 	-0.0122635 	6.39778e-20 9.58017 	-0.0128092 	6.49362e-20 9.57234 	-0.0136068 	5.15867e-20 9.5618 	-0.0145078 	3.82353e-20 9.55124 	-0.0154098 	2.4882e-20 9.54066 	-0.0163128 	1.15268e-20 9.52101 	-0.0175388 	-5.48037e-22 9.51821 	-0.0181474 	-1.08805e-20 9.5073 	-0.019031 	-2.35608e-20 9.49637 	-0.0199156 	-3.62393e-20 9.48542 	-0.0208012 	-4.89159e-20 9.46014 	-0.0221284 	-6.16022e-20 9.46171 	-0.0226252 	-6.4153e-20 9.45047 	-0.0234968 	-7.17649e-20 9.43921 	-0.0243695 	-7.9372e-20 9.42792 	-0.0252432 	-8.69742e-20 9.39791 	-0.0265944 	-1.03618e-19 9.40316 	-0.0270594 	-1.437e-19 9.39163 	-0.0279238 	-1.3357e-19 9.38008 	-0.0287893 	-1.23461e-19 9.3685 	-0.029656 	-1.13371e-19 9.3347 	-0.0309538 	-4.30675e-20 9.34292 	-0.0314608 	-2.87108e-20 9.33114 	-0.0323204 	-2.03983e-20 9.31934 	-0.0331811 	-1.20846e-20 9.30751 	-0.034043 	-3.76975e-21 9.2708 	-0.0352141 	0 9.28133 	-0.0358291 	0 9.26934 	-0.0366863 	0 9.25732 	-0.0375447 	0 9.24528 	-0.0384043 	0 9.2065 	-0.0393858 	0 9.21872 	-0.040166 	2.39794e-21 9.20655 	-0.0410242 	1.00372e-20 9.19436 	-0.0418835 	1.76753e-20 9.18214 	-0.0427442 	2.53123e-20 9.14203 	-0.0434856 	4.33121e-20 9.15542 	-0.0444787 	1.59298e-19 9.1431 	-0.0453412 	1.62866e-19 9.13076 	-0.046205 	1.66456e-19 9.11839 	-0.0470701 	1.7007e-19 9.07762 	-0.0475319 	4.36148e-20 9.09171 	-0.0487751 	2.37692e-20 9.07927 	-0.0496461 	1.667e-20 9.06681 	-0.0505184 	9.56949e-21 9.05416 	-0.0513878 	2.59465e-21 9.01345 	-0.0515476 	1.71115e-20 9.02643 	-0.0530374 	1.10714e-19 9.01533 	-0.0539534 	1.17758e-19 9.00278 	-0.0548367 	1.19702e-19 8.98702 	-0.0556008 	1.08052e-19 8.94969 	-0.0555478 	4.09707e-21 8.95987 	-0.0572184 	-1.06169e-19 8.95152 	-0.0582614 	-1.35476e-19 8.93889 	-0.0591616 	-1.46243e-19 8.92075 	-0.0597796 	-1.35934e-19 8.88648 	-0.0595666 	-6.37717e-20 8.89417 	-0.0614081 	-1.89084e-19 8.88804 	-0.0626244 	-2.31503e-19 8.87537 	-0.0635461 	-2.34774e-19 8.85546 	-0.0639804 	-1.84923e-19 8.82395 	-0.0636291 	-4.95569e-20 8.82944 	-0.0655991 	-2.60502e-20 8.82509 	-0.0670137 	-1.11832e-20 8.81239 	-0.0679566 	-3.65019e-21 8.79126 	-0.0681842 	0 8.7622 	-0.0677385 	0 8.76575 	-0.0698149 	0 8.7628 	-0.0714509 	0 8.75009 	-0.0724205 	0 8.72816 	-0.0724313 	2.26893e-21 8.70131 	-0.0719276 	5.75403e-21 8.70317 	-0.074107 	2.46172e-21 8.70131 	-0.07599 	0 8.6886 	-0.0769882 	0 8.66626 	-0.0767623 	2.75764e-21 8.64137 	-0.0762106 	6.24832e-21 8.64177 	-0.0784702 	2.95677e-21 8.64077 	-0.0806069 	6.80259e-22 8.62808 	-0.0816342 	7.39071e-21 8.60561 	-0.0811687 	2.60121e-20 8.58244 	-0.0805947 	4.54967e-20 8.58158 	-0.0829299 	1.78839e-19 8.58064 	-0.0852677 	3.12184e-19 8.56791 	-0.0862591 	3.12782e-19 8.54622 	-0.0856595 	1.79522e-19 8.52454 	-0.0850596 	4.62584e-20 8.52261 	-0.0874112 	2.7138e-20 8.52059 	-0.0897653 	8.02001e-21 8.50846 	-0.0907425 	7.62881e-22 8.48807 	-0.0901847 	4.1077e-21 8.46769 	-0.0896265 	7.45239e-21 8.46482 	-0.0920116 	4.31687e-21 8.46187 	-0.0943992 	1.1828e-21 8.45037 	-0.0953755 	-1.31317e-22 8.43113 	-0.0948659 	-4.02147e-21 8.41189 	-0.094356 	-7.91092e-21 8.40821 	-0.0967749 	-5.3971e-20 8.40445 	-0.0991962 	-1.00038e-19 8.3936 	-0.100168 	-1.02462e-19 8.37534 	-0.0996959 	-6.04618e-20 8.3571 	-0.0992232 	-1.84594e-20 8.3527 	-0.101641 	8.55472e-20 8.34822 	-0.104061 	1.89545e-19 8.33802 	-0.10503 	1.99958e-19 8.32065 	-0.104627 	1.12948e-19 8.30328 	-0.104225 	2.59348e-20 8.29825 	-0.106645 	1.36735e-20 8.29313 	-0.109068 	1.40648e-21 8.28358 	-0.110037 	-4.36137e-21 8.26697 	-0.109699 	6.1934e-22 8.25037 	-0.10936 	5.6006e-21 8.24475 	-0.111765 	-6.53187e-22 8.23892 	-0.114115 	-7.14564e-21 8.22964 	-0.115046 	-1.94129e-20 8.21424 	-0.114881 	-6.84635e-20 8.19831 	-0.114621 	-1.20711e-19 8.19218 	-0.117019 	-2.56783e-19 8.18534 	-0.119112 	-3.58761e-19 8.17609 	-0.120077 	-3.35105e-19 8.16238 	-0.120193 	-2.14533e-19 8.14703 	-0.119997 	-5.83619e-20 8.14042 	-0.122355 	7.12889e-20 8.13275 	-0.124186 	1.48772e-19 8.12353 	-0.1252 	1.45622e-19 8.11129 	-0.125631 	9.40308e-20 8.09646 	-0.125559 	6.75655e-22 8.08942 	-0.127949 	-9.16338e-20 8.0811 	-0.129583 	-1.35732e-19 8.07185 	-0.130663 	-1.44465e-19 8.06085 	-0.131384 	-1.23256e-19 8.04645 	-0.131397 	-4.3046e-20 8.03902 	-0.133828 	-3.18586e-20 8.03016 	-0.135255 	-2.0743e-20 8.02085 	-0.136375 	-9.65124e-21 8.01089 	-0.137356 	2.74735e-21 7.99684 	-0.137401 	2.39343e-20 7.98902 	-0.139789 	9.25639e-22 7.97975 	-0.14099 	-5.68422e-21 7.97038 	-0.142142 	-1.16081e-20 7.96097 	-0.143295 	-1.75334e-20 7.94758 	-0.143522 	-3.93807e-21 7.93921 	-0.145711 	-1.99274e-20 7.92983 	-0.146907 	-2.63747e-20 7.92039 	-0.148104 	-3.28267e-20 7.91091 	-0.149301 	-3.92834e-20 7.89865 	-0.149828 	-5.65308e-20 7.88981 	-0.151796 	1.41988e-20 7.88035 	-0.153036 	1.53298e-20 7.87084 	-0.154277 	1.64305e-20 7.86129 	-0.155518 	1.75008e-20 7.84997 	-0.156318 	-2.61671e-20 7.84076 	-0.158076 	1.42804e-20 7.83123 	-0.159352 	1.58893e-20 7.82165 	-0.160628 	1.74705e-20 7.81202 	-0.161906 	1.90239e-20 7.80155 	-0.162964 	2.2508e-21 7.79235 	-0.164463 	-1.44378e-22 7.78299 	-0.165728 	-1.09655e-22 7.77358 	-0.166994 	-7.49422e-23 7.76413 	-0.168261 	-4.0241e-23 7.75528 	-0.169442 	-7.90564e-24 7.75485 	-0.169498 	-6.24675e-24 7.75442 	-0.169553 	-4.58784e-24 7.75399 	-0.169608 	-2.92891e-24 7.75356 	-0.169664 	-1.26996e-24 7.75319 	-0.169709 	0 7.74315 	-0.171052 	0 7.73308 	-0.172387 	0 7.72295 	-0.173723 	0 7.71277 	-0.175059 	0 7.70372 	-0.176151 	0 7.69316 	-0.177759 	0 7.68291 	-0.179133 	0 7.67261 	-0.180508 	0 7.66226 	-0.181884 	0 7.65412 	-0.182798 	0 7.64299 	-0.184679 	0 7.63251 	-0.186096 	0 7.62197 	-0.187513 	0 7.61137 	-0.188931 	0 7.60408 	-0.189661 	0 7.59238 	-0.191805 	0 7.58164 	-0.19324 	0 7.57084 	-0.194676 	0 7.55999 	-0.196113 	0 7.55349 	-0.196623 	0 7.54135 	-0.198907 	0 7.53023 	-0.200442 	0 7.51918 	-0.201882 	0 7.50922 	-0.203085 	0 7.50242 	-0.203618 	0 7.49011 	-0.205896 	0 7.4784 	-0.207686 	-5.12124e-21 7.4671 	-0.209133 	-1.38303e-20 7.45798 	-0.210108 	-2.25578e-20 7.45078 	-0.210665 	-3.13031e-20 7.43822 	-0.212944 	-2.15193e-20 7.42589 	-0.214992 	-1.41613e-20 7.4143 	-0.216442 	-1.30842e-20 7.40599 	-0.21717 	-1.99806e-20 7.39844 	-0.217727 	-2.87721e-20 7.38572 	-0.219978 	-1.88969e-20 7.37292 	-0.22223 	-9.01616e-21 7.36137 	-0.223615 	0 7.35338 	-0.224172 	0 7.34535 	-0.22473 	0 7.33235 	-0.226947 	0 7.31926 	-0.229165 	0 7.30819 	-0.230544 	-2.57909e-21 7.29983 	-0.231094 	-6.69599e-21 7.29143 	-0.231645 	-1.08125e-20 7.27823 	-0.233842 	-4.08015e-20 7.26495 	-0.23604 	-7.07876e-20 7.25433 	-0.237448 	-7.51944e-20 7.24546 	-0.238023 	-6.01511e-20 7.23655 	-0.238598 	-4.51021e-20 7.22307 	-0.240794 	-2.2748e-20 7.2095 	-0.242992 	-3.81167e-22 7.19933 	-0.244381 	-8.33607e-21 7.18987 	-0.244991 	-2.79012e-20 7.18042 	-0.245557 	-4.81254e-20 7.16653 	-0.247708 	-5.91363e-20 7.15361 	-0.249617 	-6.65649e-20 7.14309 	-0.250955 	-6.55565e-20 7.13296 	-0.251815 	-4.91545e-20 7.12311 	-0.252338 	-2.18807e-20 7.10892 	-0.254428 	-1.89835e-20 7.09676 	-0.256022 	-1.32764e-20 7.08583 	-0.257309 	-5.82907e-21 7.075 	-0.258423 	0 7.06466 	-0.25891 	0 7.05006 	-0.260943 	0 7.03859 	-0.262219 	0 7.02727 	-0.26345 	0 7.01589 	-0.264682 	0 7.00505 	-0.265249 	0 6.99102 	-0.266991 	0 6.97936 	-0.268155 	0 6.96764 	-0.269319 	0 6.95587 	-0.270484 	0 6.94437 	-0.271295 	-5.825e-21 6.93109 	-0.272693 	5.43108e-23 6.91905 	-0.273784 	1.42598e-22 6.90697 	-0.274876 	2.30916e-22 6.89484 	-0.275969 	3.19265e-22 6.88269 	-0.277026 	5.22902e-22 6.88116 	-0.277172 	1.32577e-21 6.87976 	-0.277287 	1.0986e-21 6.87836 	-0.277401 	8.71306e-22 6.87695 	-0.277516 	6.43879e-22 6.87556 	-0.27763 	4.1771e-22 6.86433 	-0.278538 	-1.39672e-21 6.85305 	-0.279446 	-3.21931e-21 6.84174 	-0.280356 	-5.05008e-21 6.83039 	-0.281266 	-6.8891e-21 6.82046 	-0.281942 	1.51318e-21 6.80682 	-0.283148 	3.79944e-21 6.79377 	-0.284079 	9.26221e-21 6.78068 	-0.285012 	1.47226e-20 6.76754 	-0.285946 	2.01805e-20 6.75751 	-0.28637 	2.58501e-20 6.74279 	-0.287787 	2.02504e-20 6.72941 	-0.288616 	1.92899e-20 6.71599 	-0.289446 	1.83249e-20 6.70283 	-0.290226 	1.73795e-20 6.69388 	-0.290311 	1.67581e-20 6.67848 	-0.291751 	1.54826e-20 6.66433 	-0.292651 	1.39677e-20 6.65059 	-0.293366 	1.23676e-20 6.63888 	-0.293741 	1.23705e-20 6.6297 	-0.293696 	1.43518e-20 6.61402 	-0.295006 	1.10229e-20 6.59879 	-0.296111 	8.39286e-21 6.58478 	-0.296709 	7.48165e-21 6.57462 	-0.296674 	9.27202e-21 6.56523 	-0.296511 	1.16084e-20 6.54925 	-0.297708 	7.94437e-21 6.53322 	-0.298906 	4.27624e-21 6.5197 	-0.299336 	-5.99177e-22 6.51015 	-0.299028 	-3.33035e-21 6.5006 	-0.298721 	-6.0619e-21 6.48439 	-0.299776 	-3.76325e-21 6.46813 	-0.300833 	-1.46587e-21 6.45544 	-0.301139 	0 6.4458 	-0.300674 	0 6.43616 	-0.30021 	0 6.41978 	-0.301109 	0 6.40339 	-0.302004 	-1.66929e-23 6.39176 	-0.302082 	-2.27009e-21 6.38189 	-0.301519 	-4.53174e-21 6.37223 	-0.30088 	-6.79448e-21 6.35573 	-0.301606 	-4.89959e-21 6.34118 	-0.301992 	-3.92454e-21 6.32955 	-0.301881 	-4.29778e-21 6.31877 	-0.301469 	-3.8767e-21 6.30918 	-0.300648 	-2.37364e-21 6.29264 	-0.301192 	-2.06765e-20 6.2801 	-0.301057 	-2.3243e-20 6.26853 	-0.300757 	-2.19766e-20 6.25695 	-0.300457 	-2.07094e-20 6.24738 	-0.299496 	-5.94656e-22 6.2319 	-0.299697 	-1.77495e-20 6.22046 	-0.299207 	-1.68075e-20 6.20902 	-0.298718 	-1.58653e-20 6.19758 	-0.298228 	-1.49229e-20 6.18718 	-0.297408 	-6.66639e-21 6.17388 	-0.297076 	-5.67379e-21 6.16264 	-0.29639 	-2.28882e-21 6.15141 	-0.295703 	1.09617e-21 6.14018 	-0.295016 	4.48117e-21 6.12897 	-0.294324 	7.87608e-21 6.12877 	-0.294315 	7.86273e-21 6.12859 	-0.294301 	7.89229e-21 6.12842 	-0.294287 	7.92185e-21 6.12825 	-0.294273 	7.95141e-21 6.12807 	-0.294259 	7.98097e-21 6.11698 	-0.293407 	1.0124e-20 6.10591 	-0.292554 	1.22663e-20 6.09484 	-0.291701 	1.44078e-20 6.08378 	-0.290848 	1.65486e-20 6.07416 	-0.28967 	1.13972e-20 6.06275 	-0.288886 	1.129e-20 6.05182 	-0.287819 	9.31856e-21 6.04091 	-0.286752 	7.34788e-21 6.03002 	-0.285685 	5.37796e-21 6.02205 	-0.283962 	3.61156e-21 6.01052 	-0.283248 	4.4762e-21 6.00001 	-0.281989 	2.877e-21 5.98952 	-0.280729 	1.27814e-21 5.97978 	-0.279308 	5.26071e-22 5.97301 	-0.277238 	3.15008e-21 5.96188 	-0.276348 	9.36511e-22 5.9514 	-0.275142 	6.14596e-22 5.9414 	-0.273703 	1.68006e-21 5.9336 	-0.271789 	5.79583e-21 5.92735 	-0.269547 	1.20172e-20 5.91675 	-0.268463 	1.57129e-20 5.9063 	-0.267316 	1.91569e-20 5.89685 	-0.265705 	2.07443e-20 5.89102 	-0.263324 	1.62449e-20 5.88534 	-0.260923 	1.15847e-20 5.87533 	-0.259653 	1.55976e-20 5.86534 	-0.258384 	1.96105e-20 5.85742 	-0.256516 	1.94171e-20 5.85228 	-0.253992 	1.4927e-20 5.84721 	-0.251468 	1.04371e-20 5.83784 	-0.250044 	1.4315e-20 5.8285 	-0.248621 	1.81929e-20 5.82203 	-0.246567 	1.74816e-20 5.81752 	-0.243956 	1.08132e-20 5.81309 	-0.241345 	4.14307e-21 5.80441 	-0.239797 	3.18528e-21 5.79599 	-0.238206 	2.16781e-21 5.79089 	-0.235969 	2.90784e-22 5.78684 	-0.233367 	-2.82444e-21 5.78305 	-0.230697 	-6.16876e-21 5.7751 	-0.22905 	-2.30531e-21 5.76856 	-0.227141 	-6.71641e-22 5.7641 	-0.224848 	-2.33715e-21 5.76025 	-0.222372 	-5.0938e-21 5.75711 	-0.219681 	-9.13006e-21 5.7499 	-0.217967 	1.6408e-21 5.74514 	-0.21582 	4.09156e-21 5.74134 	-0.213512 	3.4403e-21 5.7377 	-0.21117 	1.97808e-21 5.7352 	-0.208507 	-7.06398e-21 5.72886 	-0.20675 	-4.77552e-21 5.72564 	-0.204475 	-3.30456e-21 5.72247 	-0.202201 	-1.83245e-21 5.71936 	-0.199927 	-3.59205e-22 5.7172 	-0.197417 	0 5.71251 	-0.195544 	0 5.70991 	-0.193349 	0 5.70736 	-0.191154 	0 5.70487 	-0.18896 	0 5.70294 	-0.186648 	0 5.69975 	-0.184742 	2.55164e-23 5.69775 	-0.182671 	6.72229e-23 5.6958 	-0.1806 	1.08903e-22 5.6939 	-0.178531 	1.50558e-22 5.69221 	-0.17643 	1.06866e-22 5.69113 	-0.175547 	2.65641e-22 5.69042 	-0.174617 	-5.39856e-22 5.68971 	-0.173688 	-1.34437e-21 5.68902 	-0.172759 	-2.14789e-21 5.6883 	-0.171778 	-2.99567e-21 5.68769 	-0.170814 	-3.7487e-21 5.68708 	-0.16985 	-4.50113e-21 5.68649 	-0.168886 	-5.25295e-21 5.6859 	-0.167923 	-6.00418e-21 5.68543 	-0.166917 	-5.87327e-21 5.68468 	-0.165249 	-6.61553e-21 5.6839 	-0.163557 	-5.83769e-21 5.68317 	-0.161866 	-5.05497e-21 5.68247 	-0.160176 	-4.26738e-21 5.68205 	-0.158386 	7.57013e-22 5.6819 	-0.157014 	4.72896e-21 5.68158 	-0.155589 	6.47298e-21 5.68129 	-0.154165 	8.21296e-21 5.68103 	-0.152743 	9.94892e-21 5.68111 	-0.151189 	3.97875e-21 5.68151 	-0.150148 	9.60031e-22 5.68158 	-0.149049 	-1.71454e-21 5.68167 	-0.14795 	-4.38736e-21 5.68179 	-0.146852 	-7.05844e-21 5.68224 	-0.145625 	-9.80455e-21 5.68313 	-0.144958 	-1.60592e-20 5.68351 	-0.144251 	-1.6614e-20 5.68392 	-0.143544 	-1.71659e-20 5.68434 	-0.142838 	-1.7715e-20 5.68504 	-0.142029 	-7.91636e-21 5.68633 	-0.141783 	-3.67192e-21 5.687 	-0.141526 	-1.18209e-21 5.68765 	-0.141269 	1.24159e-21 5.68833 	-0.141002 	3.48598e-21 5.68916 	-0.140681 	4.7071e-21 5.69069 	-0.140891 	1.32416e-20 5.69169 	-0.141103 	1.55411e-20 5.69252 	-0.141316 	1.58496e-20 5.69337 	-0.141513 	1.31321e-20 5.69426 	-0.141679 	4.49436e-21 5.69597 	-0.142342 	3.18268e-21 5.69726 	-0.143021 	1.8871e-21 5.69822 	-0.143713 	6.04508e-22 5.69914 	-0.144397 	-1.36833e-21 5.70003 	-0.145073 	-3.95665e-21 5.70186 	-0.146216 	-1.56894e-21 5.7034 	-0.147379 	0 5.70441 	-0.148585 	0 5.70529 	-0.149811 	-1.89097e-21 5.70611 	-0.151046 	-4.50445e-21 5.70798 	-0.152718 	-2.10286e-21 5.70971 	-0.154399 	1.51768e-22 5.71069 	-0.156149 	1.37604e-21 5.71142 	-0.15795 	5.11404e-21 5.71208 	-0.159755 	9.05104e-21 5.71391 	-0.161974 	1.55506e-20 5.71568 	-0.164191 	2.20509e-20 5.7166 	-0.166495 	2.22136e-20 5.71709 	-0.168873 	1.64955e-20 5.71752 	-0.171249 	1.07783e-20 5.71922 	-0.17402 	1.15426e-20 5.72086 	-0.176788 	1.23088e-20 5.7217 	-0.17965 	9.78869e-21 5.72189 	-0.182603 	3.94813e-21 5.722 	-0.185555 	-1.89129e-21 5.72349 	-0.188884 	-1.17859e-20 5.7249 	-0.192211 	-2.16783e-20 5.72558 	-0.195639 	-2.33158e-20 5.72539 	-0.19917 	-1.5389e-20 5.72511 	-0.202699 	-7.46404e-21 5.7263 	-0.206592 	6.0791e-21 5.7274 	-0.210482 	1.96184e-20 5.72784 	-0.214484 	1.93639e-20 5.72718 	-0.218595 	4.01955e-21 5.72644 	-0.222703 	-1.133e-20 5.72724 	-0.227165 	-2.9832e-20 5.72782 	-0.231648 	-4.33036e-20 5.72776 	-0.236235 	-3.62147e-20 5.72688 	-0.240892 	-1.79435e-20 5.72558 	-0.245577 	5.10039e-21 5.72592 	-0.250608 	5.54565e-21 5.72576 	-0.255708 	6.86525e-21 5.72514 	-0.260869 	8.97514e-21 5.72407 	-0.266059 	1.18732e-20 5.72214 	-0.271317 	1.65436e-20 5.72194 	-0.276915 	2.45243e-20 5.72089 	-0.282636 	2.53251e-20 5.71962 	-0.288367 	2.5216e-20 5.71822 	-0.294093 	2.51011e-20 5.71573 	-0.299901 	1.90368e-20 5.71465 	-0.306101 	1.69253e-20 5.7128 	-0.312398 	1.963e-20 5.7108 	-0.31869 	2.23576e-20 5.70865 	-0.324976 	2.5108e-20 5.70597 	-0.331291 	3.02525e-20 5.70471 	-0.335426 	3.3895e-20 5.70314 	-0.339598 	3.22004e-20 5.7015 	-0.343767 	3.04934e-20 5.69981 	-0.347934 	2.87741e-20 5.69828 	-0.351544 	2.72733e-20 5.69718 	-0.354308 	2.62665e-20 5.69605 	-0.357071 	2.52556e-20 5.6949 	-0.359832 	2.42406e-20 5.69372 	-0.362593 	2.32214e-20 5.69233 	-0.365384 	2.15147e-20 5.68952 	-0.372703 	8.71352e-21 5.68627 	-0.380035 	-1.01473e-21 5.68285 	-0.387359