# vtk DataFile Version 2.0
track0
ASCII
DATASET POLYDATA
POINTS 12015 float
-0.0205 0.001 1e-05
-0.0202034 0.00100022 1e-05
-0.0199069 0.00100067 1e-05
-0.0196103 0.00100132 1e-05
-0.0193137 0.00100219 1e-05
-0.0190172 0.00100326 1e-05
-0.0187132 0.00100467 1e-05
-0.0184093 0.00100589 1e-05
-0.0181054 0.0010071 1e-05
-0.0178015 0.00100832 1e-05
-0.0174976 0.00100954 1e-05
-0.0172058 0.00101083 1e-05
-0.016914 0.00101194 1e-05
-0.0166222 0.00101304 1e-05
-0.0163305 0.00101414 1e-05
-0.0160387 0.00101524 1e-05
-0.0157586 0.00101638 1e-05
-0.0154784 0.00101746 1e-05
-0.0151983 0.00101858 1e-05
-0.0149182 0.00101973 1e-05
-0.0146381 0.00102092 1e-05
-0.014376 0.0010221 1e-05
-0.0141139 0.00102328 1e-05
-0.0138518 0.0010245 1e-05
-0.0135898 0.00102574 1e-05
-0.0133685 0.00102682 1e-05
-0.0133535 0.00102689 1e-05
-0.0133385 0.00102697 1e-05
-0.0133235 0.00102704 1e-05
-0.0133085 0.00102712 1e-05
-0.0132934 0.00102719 1e-05
-0.0130353 0.00102848 1e-05
-0.0127771 0.00102979 1e-05
-0.0125189 0.00103111 1e-05
-0.0122607 0.00103245 1e-05
-0.0120025 0.00103381 1e-05
-0.0117547 0.00103512 1e-05
-0.0115068 0.00103644 1e-05
-0.0112589 0.00103777 1e-05
-0.0110111 0.0010391 1e-05
-0.0107632 0.00104043 1e-05
-0.0105252 0.00104172 1e-05
-0.0102873 0.001043 1e-05
-0.0100493 0.00104429 1e-05
-0.00981133 0.00104557 1e-05
-0.00957337 0.00104686 1e-05
-0.00934491 0.00104809 1e-05
-0.00911645 0.00104932 1e-05
-0.00888799 0.00105055 1e-05
-0.00865954 0.00105178 1e-05
-0.00843108 0.001053 1e-05
-0.00821175 0.00105417 1e-05
-0.00799242 0.00105534 1e-05
-0.00777309 0.00105651 1e-05
-0.00755376 0.00105767 1e-05
-0.00733443 0.00105883 1e-05
-0.00712387 0.00105994 1e-05
-0.0069133 0.00106104 1e-05
-0.00670273 0.00106215 1e-05
-0.00649216 0.00106325 1e-05
-0.0062816 0.00106435 1e-05
-0.00607944 0.00106539 1e-05
-0.00587729 0.00106644 1e-05
-0.00567514 0.00106749 1e-05
-0.00547298 0.00106853 1e-05
-0.00527083 0.00106958 1e-05
-0.00507675 0.00107057 1e-05
-0.00488267 0.00107156 1e-05
-0.0046886 0.00107256 1e-05
-0.00449452 0.00107355 1e-05
-0.00430044 0.00107455 1e-05
-0.00411412 0.0010755 1e-05
-0.0039278 0.00107645 1e-05
-0.00374147 0.0010774 1e-05
-0.00355515 0.00107836 1e-05
-0.00336883 0.00107932 1e-05
-0.00318995 0.00108023 1e-05
-0.00301107 0.00108116 1e-05
-0.00283219 0.00108208 1e-05
-0.00265331 0.00108302 1e-05
-0.00247443 0.00108396 1e-05
-0.0023027 0.00108486 1e-05
-0.00213097 0.00108578 1e-05
-0.00195924 0.00108671 1e-05
-0.00178751 0.00108765 1e-05
-0.00161577 0.00108859 1e-05
-0.0014509 0.00108951 1e-05
-0.00128603 0.00109044 1e-05
-0.00112116 0.0010914 1e-05
-0.00095629 0.00109239 1e-05
-0.000791418 0.00109339 1e-05
-0.000633135 0.00109438 1e-05
-0.000474851 0.00109539 1e-05
-0.000316568 0.00109644 1e-05
-0.000158285 0.00109752 1e-05
0 0.00109863 1e-05
0.000105677 0.00109939 1e-05
0.000211355 0.00110015 1e-05
0.000317032 0.00110093 1e-05
0.000422709 0.00110171 1e-05
0.000528387 0.00110249 1e-05
0.000634886 0.00110328 1e-05
0.000741385 0.00110407 1e-05
0.000847885 0.00110484 1e-05
0.000954384 0.00110561 1e-05
0.00106088 0.00110637 1e-05
0.00116821 0.00110712 1e-05
0.00127554 0.00110786 1e-05
0.00138286 0.00110859 1e-05
0.00149019 0.0011093 1e-05
0.00159752 0.00110999 1e-05
0.00170568 0.00111067 1e-05
0.00181384 0.00111134 1e-05
0.001922 0.00111199 1e-05
0.00203016 0.00111263 1e-05
0.00213833 0.00111324 1e-05
0.00224733 0.00111385 1e-05
0.00235633 0.00111444 1e-05
0.00246533 0.00111502 1e-05
0.00257434 0.00111558 1e-05
0.00268334 0.00111612 1e-05
0.00279319 0.00111665 1e-05
0.00290304 0.00111718 1e-05
0.00301289 0.00111768 1e-05
0.00312274 0.00111817 1e-05
0.00323259 0.00111865 1e-05
0.00334329 0.00111911 1e-05
0.003454 0.00111956 1e-05
0.0035647 0.00112 1e-05
0.0036754 0.00112043 1e-05
0.00378611 0.00112084 1e-05
0.00389767 0.00112123 1e-05
0.00400924 0.00112161 1e-05
0.0041208 0.00112198 1e-05
0.00423237 0.00112234 1e-05
0.00434393 0.00112268 1e-05
0.00445636 0.00112301 1e-05
0.00456879 0.00112332 1e-05
0.00468123 0.00112363 1e-05
0.00479366 0.00112392 1e-05
0.00490609 0.0011242 1e-05
0.0050194 0.00112445 1e-05
0.0051327 0.00112471 1e-05
0.00524601 0.00112494 1e-05
0.00535932 0.00112517 1e-05
0.00547262 0.00112538 1e-05
0.00558681 0.00112557 1e-05
0.005701 0.00112576 1e-05
0.00581518 0.00112594 1e-05
0.00592937 0.0011261 1e-05
0.00604356 0.00112625 1e-05
0.00615863 0.00112638 1e-05
0.00627371 0.0011265 1e-05
0.00638878 0.00112662 1e-05
0.00650386 0.00112672 1e-05
0.00661893 0.00112681 1e-05
0.0067349 0.00112688 1e-05
0.00685087 0.00112694 1e-05
0.00696684 0.001127 1e-05
0.00708281 0.00112704 1e-05
0.00719878 0.00112707 1e-05
0.00731565 0.00112708 1e-05
0.00743252 0.00112708 1e-05
0.00754939 0.00112708 1e-05
0.00766626 0.00112706 1e-05
0.00778313 0.00112703 1e-05
0.00790091 0.00112699 1e-05
0.00801869 0.00112693 1e-05
0.00813647 0.00112687 1e-05
0.00825425 0.0011268 1e-05
0.00837203 0.00112671 1e-05
0.00843677 0.00112665 1e-05
0.00850151 0.00112659 1e-05
0.00856625 0.00112653 1e-05
0.00863098 0.00112647 1e-05
0.00869328 0.0011264 1e-05
0.00874773 0.00112634 1e-05
0.00880217 0.00112628 1e-05
0.00885662 0.00112622 1e-05
0.00891107 0.00112615 1e-05
0.00896551 0.00112608 1e-05
0.00908513 0.00112592 1e-05
0.00920475 0.00112575 1e-05
0.00932437 0.00112557 1e-05
0.00944398 0.00112538 1e-05
0.0095636 0.00112517 1e-05
0.00968415 0.00112495 1e-05
0.0098047 0.00112472 1e-05
0.00992525 0.00112448 1e-05
0.0100458 0.00112423 1e-05
0.0101663 0.00112396 1e-05
0.0102878 0.00112368 1e-05
0.0104093 0.00112339 1e-05
0.0105308 0.00112308 1e-05
0.0106523 0.00112277 1e-05
0.0107738 0.00112245 1e-05
0.0108962 0.0011221 1e-05
0.0110186 0.00112175 1e-05
0.0111411 0.00112138 1e-05
0.0112635 0.00112101 1e-05
0.0113859 0.00112062 1e-05
0.0115093 0.00112021 1e-05
0.0116327 0.00111979 1e-05
0.0117561 0.00111937 1e-05
0.0118795 0.00111893 1e-05
0.0120028 0.00111848 1e-05
0.0121272 0.001118 1e-05
0.0122515 0.00111752 1e-05
0.0123759 0.00111703 1e-05
0.0125002 0.00111653 1e-05
0.0126245 0.00111601 1e-05
0.0127498 0.00111548 1e-05
0.0128752 0.00111493 1e-05
0.0130005 0.00111437 1e-05
0.0131258 0.0011138 1e-05
0.0132511 0.00111322 1e-05
0.0133774 0.00111262 1e-05
0.0135036 0.001112 1e-05
0.0136299 0.00111138 1e-05
0.0137562 0.00111074 1e-05
0.0138825 0.00111009 1e-05
0.0140098 0.00110942 1e-05
0.014137 0.00110874 1e-05
0.0142643 0.00110804 1e-05
0.0143915 0.00110733 1e-05
0.0145188 0.00110661 1e-05
0.0146471 0.00110588 1e-05
0.0147753 0.00110512 1e-05
0.0149036 0.00110435 1e-05
0.0150318 0.00110357 1e-05
0.0151601 0.00110278 1e-05
0.0152893 0.00110198 1e-05
0.0154186 0.00110115 1e-05
0.0155478 0.00110031 1e-05
0.0156771 0.00109946 1e-05
0.0158063 0.00109859 1e-05
0.0159366 0.00109772 1e-05
0.0160668 0.00109682 1e-05
0.0161971 0.0010959 1e-05
0.0163273 0.00109497 1e-05
0.0164576 0.00109403 1e-05
0.0165889 0.00109308 1e-05
0.0167201 0.0010921 1e-05
0.0168514 0.00109111 1e-05
0.0169827 0.00109009 1e-05
0.0171139 0.00108908 1e-05
0.0172462 0.00108805 1e-05
0.0173785 0.001087 1e-05
0.0175108 0.00108592 1e-05
0.0176431 0.00108483 1e-05
0.0177754 0.00108373 1e-05
0.0179087 0.00108263 1e-05
0.018042 0.00108149 1e-05
0.0181753 0.00108033 1e-05
0.0183087 0.00107915 1e-05
0.018442 0.00107796 1e-05
0.0185763 0.00107678 1e-05
0.0187107 0.00107556 1e-05
0.018845 0.00107431 1e-05
0.0189794 0.00107304 1e-05
0.0191137 0.00107177 1e-05
0.0192491 0.0010705 1e-05
0.0193845 0.00106919 1e-05
0.0195199 0.00106784 1e-05
0.0196553 0.00106648 1e-05
0.0197907 0.00106512 1e-05
0.0199272 0.00106376 1e-05
0.0200636 0.00106236 1e-05
0.0202001 0.00106092 1e-05
0.0203365 0.00105947 1e-05
0.020473 0.00105802 1e-05
0.0206105 0.00105656 1e-05
0.020748 0.00105507 1e-05
0.0208855 0.00105353 1e-05
0.021023 0.00105198 1e-05
0.0211606 0.00105044 1e-05
0.0212991 0.00104888 1e-05
0.0214377 0.00104729 1e-05
0.0215763 0.00104565 1e-05
0.0217149 0.001044 1e-05
0.0218535 0.00104235 1e-05
0.0219931 0.00104069 1e-05
0.0221328 0.00103899 1e-05
0.0222724 0.00103725 1e-05
0.0224121 0.00103549 1e-05
0.0225517 0.00103373 1e-05
0.0226925 0.00103197 1e-05
0.0228332 0.00103016 1e-05
0.022974 0.00102831 1e-05
0.0231147 0.00102644 1e-05
0.0232555 0.00102457 1e-05
0.0233973 0.00102269 1e-05
0.0235391 0.00102077 1e-05
0.023681 0.0010188 1e-05
0.0238228 0.00101682 1e-05
0.0239647 0.00101484 1e-05
0.0241076 0.00101284 1e-05
0.0242505 0.0010108 1e-05
0.0243935 0.00100872 1e-05
0.0245364 0.00100662 1e-05
0.0246794 0.00100451 1e-05
0.0248234 0.00100239 1e-05
0.0249675 0.00100022 1e-05
0.0251115 0.000998024 1e-05
0.0252556 0.000995804 1e-05
0.0253996 0.000993573 1e-05
0.0255448 0.000991322 1e-05
0.02569 0.000989026 1e-05
0.0258351 0.000986698 1e-05
0.0259803 0.000984348 1e-05
0.0261255 0.000981982 1e-05
0.0262718 0.000979593 1e-05
0.0264181 0.000977157 1e-05
0.0265644 0.000974693 1e-05
0.0267107 0.000972205 1e-05
0.026857 0.000969697 1e-05
0.0270044 0.000967164 1e-05
0.0271519 0.000964584 1e-05
0.0272993 0.000961979 1e-05
0.0274467 0.000959349 1e-05
0.0275942 0.000956695 1e-05
0.0277428 0.000954012 1e-05
0.0278914 0.000951285 1e-05
0.0280399 0.000948533 1e-05
0.0281885 0.000945754 1e-05
0.0283371 0.00094295 1e-05
0.0284869 0.00094011 1e-05
0.0286366 0.000937229 1e-05
0.0287863 0.000934321 1e-05
0.0289361 0.000931386 1e-05
0.0290858 0.000928423 1e-05
0.0292367 0.000925418 1e-05
0.0293876 0.000922376 1e-05
0.0295385 0.000919305 1e-05
0.0296894 0.000916206 1e-05
0.0298403 0.000913079 1e-05
0.029988 0.000909994 1e-05
0.0301357 0.000906878 1e-05
0.0302833 0.000903733 1e-05
0.030431 0.000900561 1e-05
0.0305686 0.000897578 1e-05
0.0305751 0.000897438 1e-05
0.0305815 0.000897298 1e-05
0.0305879 0.000897158 1e-05
0.0305943 0.000897017 1e-05
0.0306007 0.000896877 1e-05
0.030754 0.000893522 1e-05
0.0309072 0.000890136 1e-05
0.0310605 0.00088672 1e-05
0.0312138 0.000883273 1e-05
0.031367 0.000879794 1e-05
0.0315215 0.000876262 1e-05
0.0316759 0.000872694 1e-05
0.0318304 0.000869092 1e-05
0.0319848 0.000865459 1e-05
0.0321393 0.000861792 1e-05
0.0322949 0.000858075 1e-05
0.0324506 0.000854314 1e-05
0.0326062 0.000850519 1e-05
[...]
POINT_DATA 12015
 FIELD attributes 2
p 1 12015 float
-5.66371 -5.66297 -5.65933 -5.65561 -5.65181 -5.6434 -5.65717 -5.67205 -5.68692 -5.7018 -5.72611 -5.74773 -5.7775 -5.80727 -5.83704 -5.86961 -5.88506 -5.90655 -5.92804 -5.94953 -5.97263 -5.99114 -6.01166 -6.03217 -6.05269 -6.07002 -6.07119 -6.07236 -6.07354 -6.07471 -6.07588 -6.09717 -6.11846 -6.13975 -6.16104 -6.18205 -6.20035 -6.21845 -6.23655 -6.25464 -6.27216 -6.2872 -6.30194 -6.31669 -6.33143 -6.34561 -6.35864 -6.37139 -6.38414 -6.39689 -6.40916 -6.42092 -6.43237 -6.44382 -6.45526 -6.46625 -6.47684 -6.48704 -6.49724 -6.50744 -6.51717 -6.52657 -6.53555 -6.54454 -6.55352 -6.5621 -6.57038 -6.57815 -6.58592 -6.59369 -6.60108 -6.60823 -6.61485 -6.62148 -6.6281 -6.63458 -6.64072 -6.64595 -6.65118 -6.65641 -6.66161 -6.66699 -6.67221 -6.67743 -6.68265 -6.6892 -6.69639 -6.70228 -6.70817 -6.71406 -6.72145 -6.73271 -6.74938 -6.76604 -6.7827 -6.80475 -6.82879 -6.86024 -6.8917 -6.92316 -6.95441 -6.98424 -7.01584 -7.04744 -7.07904 -7.10613 -7.12687 -7.14676 -7.16666 -7.18656 -7.20473 -7.21831 -7.23085 -7.2434 -7.25595 -7.26824 -7.27919 -7.2886 -7.29802 -7.30743 -7.31596 -7.3252 -7.33273 -7.34027 -7.34781 -7.35393 -7.36123 -7.36691 -7.3726 -7.37829 -7.38257 -7.38768 -7.39149 -7.3953 -7.39912 -7.40196 -7.40524 -7.40752 -7.40981 -7.41209 -7.41386 -7.41587 -7.41711 -7.41835 -7.41959 -7.42062 -7.42203 -7.42285 -7.42366 -7.42448 -7.42516 -7.42642 -7.4272 -7.42797 -7.42875 -7.42936 -7.4305 -7.43124 -7.43198 -7.43272 -7.43328 -7.43419 -7.43481 -7.43542 -7.43604 -7.43654 -7.43734 -7.438 -7.43865 -7.4393 -7.43992 -7.44051 -7.44105 -7.44159 -7.44214 -7.44266 -7.44312 -7.44357 -7.44402 -7.44448 -7.44512 -7.44638 -7.44783 -7.44927 -7.45072 -7.45278 -7.45403 -7.45584 -7.45766 -7.45948 -7.46229 -7.46349 -7.4656 -7.46771 -7.46982 -7.4733 -7.47448 -7.47689 -7.4793 -7.48172 -7.48582 -7.48707 -7.48982 -7.49256 -7.49531 -7.5 -7.50145 -7.50457 -7.50768 -7.5108 -7.51605 -7.5178 -7.52132 -7.52484 -7.52836 -7.53411 -7.53625 -7.54017 -7.5441 -7.54802 -7.55417 -7.55676 -7.56106 -7.56535 -7.56966 -7.57607 -7.57921 -7.58375 -7.58836 -7.5932 -7.59958 -7.60331 -7.60798 -7.61286 -7.61811 -7.62442 -7.62866 -7.63347 -7.63856 -7.64409 -7.65034 -7.65501 -7.66001 -7.66527 -7.67102 -7.67723 -7.6823 -7.68752 -7.69298 -7.69891 -7.70509 -7.71049 -7.71595 -7.72157 -7.72755 -7.73361 -7.7392 -7.7448 -7.75047 -7.75635 -7.76225 -7.76788 -7.77351 -7.77915 -7.78492 -7.79069 -7.79632 -7.80195 -7.80754 -7.81318 -7.81882 -7.82438 -7.82994 -7.83543 -7.8409 -7.84637 -7.85178 -7.85718 -7.86252 -7.86777 -7.87301 -7.87818 -7.88335 -7.88846 -7.89344 -7.89843 -7.9033 -7.90817 -7.913 -7.91768 -7.92235 -7.92687 -7.9314 -7.93588 -7.94021 -7.94452 -7.94864 -7.95275 -7.95682 -7.96077 -7.96469 -7.96836 -7.97201 -7.97561 -7.97913 -7.98257 -7.98575 -7.98888 -7.99198 -7.99503 -7.99798 -8.00066 -8.00326 -8.00583 -8.00838 -8.01073 -8.0129 -8.01489 -8.01687 -8.01886 -8.02053 -8.02204 -8.02334 -8.02465 -8.02596 -8.02697 -8.0277 -8.02826 -8.02884 -8.02941 -8.02977 -8.02967 -8.02947 -8.02927 -8.02908 -8.02879 -8.02789 -8.02694 -8.02599 -8.02505 -8.02417 -8.02413 -8.0241 -8.02406 -8.02402 -8.02398 -8.02221 -8.02043 -8.01866 -8.0169 -8.01503 -8.01243 -8.0097 -8.00697 -8.00425 -8.00134 -7.99791 -7.99424 -7.99058 -7.98692 -7.98302 -7.97878 -7.9742 -7.96964 -7.96507 -7.96021 -7.95513 -7.94972 -7.94428 -7.93876 -7.93305 -7.92714 -7.921 -7.9147 -7.90826 -7.90169 -7.89493 -7.88807 -7.88094 -7.87355 -7.86611 -7.85853 -7.85096 -7.8429 -7.83445 -7.826 -7.81745 -7.80891 -7.79983 -7.79023 -7.78063 -7.77095 -7.76127 -7.75111 -7.74044 -7.72977 -7.71891 -7.70806 -7.6969 -7.68543 -7.67395 -7.66206 -7.65015 -7.63813 -7.62606 -7.61394 -7.60121 -7.58849 -7.57577 -7.56307 -7.55041 -7.53695 -7.5236 -7.51025 -7.49692 -7.48371 -7.46961 -7.45572 -7.44183 -7.42795 -7.41421 -7.39972 -7.38537 -7.37103 -7.3567 -7.34238 -7.34069 -7.33902 -7.33735 -7.33568 -7.33402 -7.321 -7.30799 -7.29499 -7.28199 -7.26906 -7.25395 -7.23895 -7.22396 -7.20897 -7.1942 -7.17866 -7.16343 -7.14821 -7.13303 -7.11825 -7.10241 -7.08698 -7.0717 -7.0567 -7.04205 -7.02619 -7.01054 -6.99536 -6.98081 -6.96639 -6.95063 -6.93488 -6.92006 -6.90614 -6.89222 -6.87684 -6.86146 -6.84717 -6.83396 -6.82075 -6.80597 -6.79121 -6.77775 -6.76528 -6.75292 -6.73892 -6.72551 -6.71296 -6.70092 -6.68957 -6.67651 -6.66471 -6.6532 -6.6417 -6.63141 -6.61976 -6.60946 -6.59916 -6.58885 -6.57921 -6.56957 -6.56064 -6.55171 -6.54278 -6.53386 -6.53373 -6.53361 -6.5335 -6.53338 -6.53326 -6.5259 -6.51853 -6.51117 -6.5038 -6.49722 -6.49061 -6.4848 -6.47899 -6.47317 -6.469 -6.46333 -6.45931 -6.45529 -6.45168 -6.44972 -6.44579 -6.44289 -6.44074 -6.43982 -6.43974 -6.43773 -6.43594 -6.43576 -6.43759 -6.43945 -6.43946 -6.43946 -6.44138 -6.44519 -6.44898 -6.45101 -6.45302 -6.45682 -6.46252 -6.4682 -6.47223 -6.47635 -6.48211 -6.48939 -6.49693 -6.50293 -6.50957 -6.51715 -6.52553 -6.53485 -6.54281 -6.55176 -6.56107 -6.57052 -6.58145 -6.59121 -6.60212 -6.61302 -6.62391 -6.63598 -6.64767 -6.66001 -6.67233 -6.68465 -6.6976 -6.71092 -6.72452 -6.73811 -6.75169 -6.76544 -6.77256 -6.77973 -6.7869 -6.79407 -6.80164 -6.80901 -6.81638 -6.82374 -6.8311 -6.83851 -6.8538 -6.86924 -6.88466 -6.90008 -6.91556 -6.9312 -6.9472 -6.9632 -6.97919 -6.99513 -7.01088 -7.02711 -7.04334 -7.05956 -7.07553 -7.09118 -7.10727 -7.12336 -7.13945 -7.15495 -7.17021 -7.18577 -7.20134 -7.2168 -7.23155 -7.24621 -7.26091 -7.27562 -7.28999 -7.30365 -7.31734 -7.33095 -7.34452 -7.35743 -7.36977 -7.38223 -7.39458 -7.40671 -7.41779 -7.42847 -7.43937 -7.45022 -7.46062 -7.46949 -7.47825 -7.48733 -7.49641 -7.50456 -7.51101 -7.51746 -7.52432 -7.53118 -7.53666 -7.54047 -7.54429 -7.5486 -7.55291 -7.55532 -7.55606 -7.55681 -7.55812 -7.55944 -7.55839 -7.55573 -7.55306 -7.55104 -7.54846 -7.54362 -7.53759 -7.53106 -7.52525 -7.51783 -7.50897 -7.49952 -7.48876 -7.47877 -7.46586 -7.45257 -7.43928 -7.42415 -7.40856 -7.39045 -7.37234 -7.35423 -7.33531 -7.32216 -7.30794 -7.29373 -7.27951 -7.26719 -7.2579 -7.24862 -7.23934 -7.23006 -7.22006 -7.19235 -7.16402 -7.13569 -7.10737 -7.0763 -7.04454 -7.01032 -6.9761 -6.94089 -6.90249 -6.86496 -6.82631 -6.78584 -6.74174 -6.69686 -6.65287 -6.60888 -6.56111 -6.50951 -6.45783 -6.40705 -6.35548 -6.3 -6.24276 -6.18405 -6.12623 -6.064 -6.00131 -5.93861 -5.87439 -5.85052 -5.82518 -5.79984 -5.77449 -5.75083 -5.70666 -5.66249 -5.61833 -5.57417 -5.52718 -5.4538 -5.37775 -5.30171 -5.22356 -5.14209 -5.06179 -4.98151 -4.89699 -4.8082 -4.71914 -4.63123 -4.54167 -4.4485 -4.35496 -4.25837 -4.19979 -4.13822 -4.07645 -4.01468 -3.95889 -3.91948 -3.88008 -3.84068 -3.80112 -3.75949 -3.6557 -3.54966 -3.44365 -3.33483 -3.2231 -3.11278 -3.00249 -2.88836 -2.77028 -2.65165 -2.54944 -2.44406 -2.33771 -2.23136 -2.13804 -2.11997 -2.1019 -2.08383 -2.06556 -2.04674 -1.92137 -1.79514 -1.66897 -1.54069 -1.40928 -1.2794 -1.14956 -1.01644 -0.881028 -0.744356 -0.668763 -0.59203 -0.514494 -0.436972 -0.364953 -0.303291 -0.241643 -0.18001 -0.117717 -0.0542761 0.0856358 0.226195 0.367672 0.511787 0.656967 0.790575 0.92515 1.06075 1.1963 1.31739 1.33061 1.34383 1.35705 1.37038 1.38381 1.5309 1.6782 1.82541 1.97358 2.12347 2.2719 2.42046 2.56944 2.71833 2.86864 2.8738 2.87895 2.8841 2.88926 2.89439 3.03874 3.18301 3.32719 3.47124 3.61655 3.7657 3.91452 4.06262 4.21063 4.35855 4.35885 4.35915 4.35945 4.35975 4.36005 4.50775 4.65536 4.80288 4.94923 5.0965 5.22219 5.34737 5.47103 5.59463 5.71034 5.73233 5.75431 5.77628 5.79804 5.81975 5.96261 6.10494 6.24709 6.38668 6.52745 6.61584 6.70384 6.79017 6.87647 6.95973 7.0112 7.06266 7.11411 7.16464 7.21504 7.35016 7.48521 7.61802 7.74855 7.87991 7.92926 7.97836 8.02615 8.07393 8.12112 8.2019 8.28267 8.36342 8.44177 8.51999 8.64531 8.77027 8.89081 9.01135 9.13215 9.13328 9.13441 9.1355 9.13658 9.13767 9.25507 9.37248 9.48989 9.60294 9.71558 9.78472 9.85365 9.9198 9.98596 10.0526 10.0964 10.1402 10.184 10.2261 10.2679 10.3751 10.4824 10.5863 10.688 10.789 10.8114 10.8336 10.8549 10.8761 10.8976 10.9753 11.0531 11.1309 11.2054 11.279 11.3616 11.4438 11.5224 11.601 11.6844 11.6951 11.7059 11.7166 11.727 11.7372 11.8253 11.9127 12 12.0831 12.1654 12.2183 12.2706 12.3209 12.3712 12.4248 12.4529 12.4811 12.5092 12.5363 12.563 12.6392 12.7154 12.7895 12.8611 12.9319 12.9736 13.0147 13.0544 13.0941 13.1371 13.1646 13.1921 13.2197 13.2464 13.2725 13.3375 13.4022 13.4656 13.5265 13.5867 13.6361 13.6844 13.7314 13.7784 13.832 13.8406 13.8493 13.8579 13.8664 13.8746 13.9288 13.9827 14.0364 14.0887 14.1394 14.1893 14.2392 14.2868 14.334 14.3803 14.4074 14.4336 14.4595 14.4853 14.5142 14.5315 14.5488 14.5661 14.5832 14.5997 14.6407 14.6812 14.7217 14.7611 14.7995 14.8368 14.874 14.91 14.9451 14.9799 15.0136 15.0462 15.0784 15.1106 15.1424 15.1519 15.161 15.1701 15.1792 15.1889 15.2092 15.2294 15.2497 15.2699 15.2895 15.3165 15.3432 15.3699 15.3962 15.4218 15.446 15.4702 15.494 15.5171 15.5401 15.5618 15.5835 15.6044 15.6251 15.6457 15.6651 15.684 15.7027 15.7213 15.7398 15.7569 15.7736 15.7902 15.8069 15.8235 15.8246 15.8258 15.8269 15.8281 15.8293 15.8432 15.857 15.8709 15.8848 15.8984 15.9117 15.9251 15.9384 15.9517 15.9648 15.9765 15.9883 16.0001 16.0119 16.0235 16.0338 16.0441 16.0546 16.0649 16.0752 16.0843 16.0934 16.1025 16.1117 16.1209 16.1289 16.1368 16.1448 16.153 16.1611 16.1681 16.1752 16.1822 16.1894 16.1966 16.2028 16.209 16.2153 16.2216 16.228 16.2335 16.2391 16.2447 16.2502 16.256 16.261 16.266 16.2711 16.2761 16.2813 16.2859 16.2906 16.2952 16.2999 16.3047 16.3091 16.3136 16.3181 16.3226 16.3271 16.33 16.3328 16.3357 16.3386 16.3419 16.3436 16.3452 16.3468 16.3483 16.35 16.3549 16.3598 16.3648 16.3697 16.3748 16.3804 16.3862 16.3919 16.3977 16.4038 16.4106 16.4174 16.4242 16.4311 16.4384 16.447 16.4558 16.4646 16.4734 16.4839 16.4942 16.5023 16.5104 16.5184 16.5268 16.5357 16.5454 16.555 16.5645 16.5767 16.5803 16.5753 16.5699 16.5642 16.5347 16.4972 16.4591 16.4209 16.3802 16.3352 16.2878 16.2427 16.2021 16.1651 16.129 16.0911 16.0531 16.0156 15.9783 15.941 15.9013 15.8617 15.8197 15.7756 15.7315 15.6846 15.6378 15.5897 15.5406 15.4916 15.4397 15.3877 15.335 15.2819 15.2286 15.1725 15.1159 15.0586 15.0008 14.9425 14.8811 14.8187 14.7557 14.6926 14.6281 14.5605 14.4912 14.4218 14.3524 14.2815 14.2066 14.13 14.0535 13.9769 13.8991 13.8159 13.7314 13.6469 13.5623 13.477 13.3844 13.2909 13.1974 13.1039 13.0102 12.9781 12.9457 12.9134 12.881 12.8466 12.7759 12.7052 12.6345 12.5639 12.4926 12.3785 12.2636 12.1488 12.0339 11.9175 11.7915 11.6637 11.5358 11.408 11.2773 11.1381 10.9953 10.8524 10.7096 10.5623 10.4078 10.2482 10.0886 9.92904 9.76352 9.5924 9.41291 9.23302 9.05181 8.86295 8.66796 8.46862 8.26788 8.06523 7.85864 7.64527 7.42143 7.18953 6.94799 6.6971 6.43787 6.18154 5.92998 5.68364 5.43981 5.18772 4.92189 4.60026 4.21602 3.82198 3.41406 3.00769 2.71715 2.53867 2.36026 2.17532 1.99051 1.51396 0.756443 0