# vtk DataFile Version 2.0
track0
ASCII
DATASET POLYDATA
POINTS 11980 float
-0.0205 0.001 1e-05
-0.0202034 0.00100022 1e-05
-0.0199069 0.00100067 1e-05
-0.0196103 0.00100133 1e-05
-0.0193137 0.00100219 1e-05
-0.0190172 0.00100326 1e-05
-0.0187132 0.00100467 1e-05
-0.0184093 0.00100589 1e-05
-0.0181054 0.00100711 1e-05
-0.0178015 0.00100832 1e-05
-0.0174976 0.00100954 1e-05
-0.0172058 0.00101083 1e-05
-0.016914 0.00101193 1e-05
-0.0166222 0.00101303 1e-05
-0.0163305 0.00101413 1e-05
-0.0160387 0.00101523 1e-05
-0.0157586 0.00101636 1e-05
-0.0154784 0.00101744 1e-05
-0.0151983 0.00101856 1e-05
-0.0149182 0.00101971 1e-05
-0.0146381 0.0010209 1e-05
-0.0143744 0.00102208 1e-05
-0.0141107 0.00102327 1e-05
-0.013847 0.00102449 1e-05
-0.0135834 0.00102574 1e-05
-0.0133607 0.00102682 1e-05
-0.0133472 0.00102688 1e-05
-0.0133338 0.00102695 1e-05
-0.0133203 0.00102702 1e-05
-0.0133069 0.00102708 1e-05
-0.0132934 0.00102715 1e-05
-0.0130353 0.00102844 1e-05
-0.0127771 0.00102974 1e-05
-0.0125189 0.00103106 1e-05
-0.0122607 0.00103239 1e-05
-0.0120025 0.00103374 1e-05
-0.0117547 0.00103505 1e-05
-0.0115068 0.00103637 1e-05
-0.0112589 0.00103769 1e-05
-0.0110111 0.00103901 1e-05
-0.0107632 0.00104034 1e-05
-0.0105252 0.00104161 1e-05
-0.0102873 0.00104289 1e-05
-0.0100493 0.00104417 1e-05
-0.00981133 0.00104545 1e-05
-0.00957337 0.00104672 1e-05
-0.00934491 0.00104794 1e-05
-0.00911645 0.00104916 1e-05
-0.00888799 0.00105038 1e-05
-0.00865954 0.0010516 1e-05
-0.00843108 0.00105281 1e-05
-0.00821175 0.00105397 1e-05
-0.00799242 0.00105512 1e-05
-0.00777309 0.00105628 1e-05
-0.00755376 0.00105742 1e-05
-0.00733443 0.00105857 1e-05
-0.00712387 0.00105966 1e-05
-0.0069133 0.00106075 1e-05
-0.00670273 0.00106183 1e-05
-0.00649216 0.00106291 1e-05
-0.0062816 0.00106399 1e-05
-0.00607944 0.00106501 1e-05
-0.00587729 0.00106604 1e-05
-0.00567514 0.00106706 1e-05
-0.00547298 0.00106807 1e-05
-0.00527083 0.00106908 1e-05
-0.00507675 0.00107004 1e-05
-0.00488267 0.00107101 1e-05
-0.0046886 0.00107196 1e-05
-0.00449452 0.00107292 1e-05
-0.00430044 0.00107387 1e-05
-0.00411412 0.00107477 1e-05
-0.0039278 0.00107568 1e-05
-0.00374147 0.00107658 1e-05
-0.00355515 0.00107747 1e-05
-0.00336883 0.00107837 1e-05
-0.00318995 0.00107922 1e-05
-0.00301107 0.00108007 1e-05
-0.00283219 0.00108092 1e-05
-0.00265331 0.00108176 1e-05
-0.00247443 0.00108261 1e-05
-0.0023027 0.00108341 1e-05
-0.00213097 0.00108422 1e-05
-0.00195924 0.00108502 1e-05
-0.0017875 0.00108582 1e-05
-0.00161577 0.00108662 1e-05
-0.0014509 0.00108737 1e-05
-0.00128603 0.00108813 1e-05
-0.00112116 0.00108889 1e-05
-0.000956289 0.00108965 1e-05
-0.000791418 0.00109041 1e-05
-0.000633135 0.00109114 1e-05
-0.000474851 0.00109186 1e-05
-0.000316567 0.00109259 1e-05
-0.000158284 0.00109331 1e-05
0 0.00109403 1e-05
0.000105677 0.00109451 1e-05
0.000211355 0.00109498 1e-05
0.000317032 0.00109546 1e-05
0.00042271 0.00109593 1e-05
0.000528387 0.00109639 1e-05
0.000634886 0.00109686 1e-05
0.000741385 0.00109732 1e-05
0.000847885 0.00109778 1e-05
0.000954384 0.00109823 1e-05
0.00106088 0.00109869 1e-05
0.00116821 0.00109914 1e-05
0.00127554 0.00109959 1e-05
0.00138286 0.00110003 1e-05
0.00149019 0.00110046 1e-05
0.00159752 0.0011009 1e-05
0.00170568 0.00110132 1e-05
0.00181384 0.00110174 1e-05
0.001922 0.00110216 1e-05
0.00203016 0.00110256 1e-05
0.00213833 0.00110295 1e-05
0.00224733 0.00110334 1e-05
0.00235633 0.00110373 1e-05
0.00246533 0.0011041 1e-05
0.00257434 0.00110447 1e-05
0.00268334 0.00110483 1e-05
0.00279319 0.00110517 1e-05
0.00290304 0.00110552 1e-05
0.00301289 0.00110586 1e-05
0.00312274 0.00110618 1e-05
0.00323259 0.00110651 1e-05
0.00334329 0.00110682 1e-05
0.003454 0.00110713 1e-05
0.0035647 0.00110743 1e-05
0.0036754 0.00110772 1e-05
0.00378611 0.00110801 1e-05
0.00389767 0.00110828 1e-05
0.00400924 0.00110855 1e-05
0.0041208 0.00110882 1e-05
0.00423237 0.00110908 1e-05
0.00434393 0.00110933 1e-05
0.00445636 0.00110957 1e-05
0.00456879 0.0011098 1e-05
0.00468123 0.00111003 1e-05
0.00479366 0.00111025 1e-05
0.00490609 0.00111047 1e-05
0.0050194 0.00111067 1e-05
0.0051327 0.00111087 1e-05
0.00524601 0.00111106 1e-05
0.00535932 0.00111125 1e-05
0.00547262 0.00111142 1e-05
0.00558681 0.00111159 1e-05
0.005701 0.00111175 1e-05
0.00581518 0.00111191 1e-05
0.00592937 0.00111205 1e-05
0.00604356 0.00111219 1e-05
0.00615863 0.00111232 1e-05
0.00627371 0.00111245 1e-05
0.00638878 0.00111257 1e-05
0.00650386 0.00111268 1e-05
0.00661893 0.00111278 1e-05
0.0067349 0.00111288 1e-05
0.00685087 0.00111297 1e-05
0.00696684 0.00111305 1e-05
0.00708281 0.00111313 1e-05
0.00719878 0.00111319 1e-05
0.00727017 0.00111323 1e-05
0.00734157 0.00111326 1e-05
0.00741296 0.00111329 1e-05
0.00748436 0.00111332 1e-05
0.00755339 0.00111335 1e-05
0.00759934 0.00111336 1e-05
0.00764529 0.00111337 1e-05
0.00769124 0.00111339 1e-05
0.00773719 0.0011134 1e-05
0.00778313 0.00111341 1e-05
0.00790091 0.00111343 1e-05
0.00801869 0.00111344 1e-05
0.00813647 0.00111345 1e-05
0.00825425 0.00111345 1e-05
0.00837203 0.00111344 1e-05
0.00849073 0.00111342 1e-05
0.00860942 0.00111339 1e-05
0.00872812 0.00111336 1e-05
0.00884682 0.00111332 1e-05
0.00896551 0.00111327 1e-05
0.00908513 0.00111321 1e-05
0.00920475 0.00111314 1e-05
0.00932437 0.00111307 1e-05
0.00944398 0.00111299 1e-05
0.0095636 0.0011129 1e-05
0.00968415 0.00111279 1e-05
0.0098047 0.00111269 1e-05
0.00992525 0.00111257 1e-05
0.0100458 0.00111245 1e-05
0.0101663 0.00111232 1e-05
0.0102878 0.00111217 1e-05
0.0104093 0.00111202 1e-05
0.0105308 0.00111187 1e-05
0.0106523 0.0011117 1e-05
0.0107738 0.00111153 1e-05
0.0108962 0.00111134 1e-05
0.0110186 0.00111115 1e-05
0.0111411 0.00111095 1e-05
0.0112635 0.00111074 1e-05
0.0113859 0.00111053 1e-05
0.0115093 0.00111029 1e-05
0.0116327 0.00111005 1e-05
0.0117561 0.00110981 1e-05
0.0118795 0.00110956 1e-05
0.0120028 0.0011093 1e-05
0.0121272 0.00110901 1e-05
0.0122515 0.00110873 1e-05
0.0123759 0.00110845 1e-05
0.0125002 0.00110815 1e-05
0.0126245 0.00110785 1e-05
0.0127498 0.00110751 1e-05
0.0128752 0.00110719 1e-05
0.0130005 0.00110685 1e-05
0.0131258 0.00110651 1e-05
0.0132511 0.00110616 1e-05
0.0133774 0.00110578 1e-05
0.0135036 0.00110541 1e-05
0.0136299 0.00110503 1e-05
0.0137562 0.00110464 1e-05
0.0138825 0.00110424 1e-05
0.0140098 0.00110382 1e-05
0.014137 0.0011034 1e-05
0.0142643 0.00110297 1e-05
0.0143915 0.00110253 1e-05
0.0145188 0.00110208 1e-05
0.0146471 0.00110161 1e-05
0.0147753 0.00110114 1e-05
0.0149036 0.00110066 1e-05
0.0150318 0.00110018 1e-05
0.0151601 0.00109968 1e-05
0.0152893 0.00109916 1e-05
0.0154186 0.00109864 1e-05
0.0155478 0.00109811 1e-05
0.0156771 0.00109757 1e-05
0.0158063 0.00109703 1e-05
0.0159366 0.00109646 1e-05
0.0160668 0.00109589 1e-05
0.0161971 0.00109531 1e-05
0.0163274 0.00109472 1e-05
0.0164576 0.00109413 1e-05
0.0165889 0.00109352 1e-05
0.0167201 0.0010929 1e-05
0.0168514 0.00109227 1e-05
0.0169827 0.00109163 1e-05
0.0171139 0.00109098 1e-05
0.0172462 0.00109032 1e-05
0.0173785 0.00108965 1e-05
0.0175108 0.00108897 1e-05
0.0176431 0.00108828 1e-05
0.0177754 0.00108758 1e-05
0.0179087 0.00108687 1e-05
0.018042 0.00108615 1e-05
0.0181753 0.00108542 1e-05
0.0183087 0.00108468 1e-05
0.018442 0.00108393 1e-05
0.0185763 0.00108318 1e-05
0.0187107 0.00108241 1e-05
0.018845 0.00108162 1e-05
0.0189794 0.00108082 1e-05
0.0191137 0.00108003 1e-05
0.0192491 0.00107923 1e-05
0.0193845 0.0010784 1e-05
0.0195199 0.00107757 1e-05
0.0196553 0.00107672 1e-05
0.0197907 0.00107587 1e-05
0.0199272 0.00107502 1e-05
0.0200636 0.00107415 1e-05
0.0202001 0.00107326 1e-05
0.0203365 0.00107236 1e-05
0.020473 0.00107146 1e-05
0.0206105 0.00107057 1e-05
0.020748 0.00106965 1e-05
0.0208855 0.0010687 1e-05
0.021023 0.00106775 1e-05
0.0211606 0.00106681 1e-05
0.0212991 0.00106586 1e-05
0.0214377 0.00106489 1e-05
0.0215763 0.0010639 1e-05
0.0217149 0.00106289 1e-05
0.0218535 0.0010619 1e-05
0.0219931 0.0010609 1e-05
0.0221328 0.00105988 1e-05
0.0222724 0.00105884 1e-05
0.0224121 0.00105778 1e-05
0.0225517 0.00105674 1e-05
0.0226925 0.00105569 1e-05
0.0228332 0.00105462 1e-05
0.022974 0.00105352 1e-05
0.0231147 0.00105242 1e-05
0.0232555 0.00105132 1e-05
0.0233973 0.00105023 1e-05
0.0235391 0.0010491 1e-05
0.023681 0.00104795 1e-05
0.0238228 0.0010468 1e-05
0.0239647 0.00104565 1e-05
0.0241076 0.0010445 1e-05
0.0242505 0.00104333 1e-05
0.0243935 0.00104213 1e-05
0.0245364 0.00104092 1e-05
0.0246794 0.00103972 1e-05
0.0248234 0.00103852 1e-05
0.0249675 0.0010373 1e-05
0.0251115 0.00103604 1e-05
0.0252556 0.00103478 1e-05
0.0253996 0.00103353 1e-05
0.0255448 0.00103228 1e-05
0.02569 0.00103101 1e-05
0.0258351 0.0010297 1e-05
0.0259803 0.00102839 1e-05
0.0261255 0.00102709 1e-05
0.0262718 0.00102578 1e-05
0.0264181 0.00102445 1e-05
0.0265644 0.0010231 1e-05
0.0267107 0.00102173 1e-05
0.026857 0.00102038 1e-05
0.0270044 0.00101902 1e-05
0.0271519 0.00101763 1e-05
0.0272993 0.00101622 1e-05
0.0274468 0.00101481 1e-05
0.0275942 0.0010134 1e-05
0.0277428 0.00101198 1e-05
0.0278914 0.00101054 1e-05
0.0280399 0.00100908 1e-05
0.0281885 0.00100761 1e-05
0.0283371 0.00100614 1e-05
0.0284869 0.00100467 1e-05
0.0286366 0.00100317 1e-05
0.0287863 0.00100165 1e-05
0.0289361 0.00100013 1e-05
0.0290858 0.000998603 1e-05
0.0292367 0.000997072 1e-05
0.0293876 0.000995511 1e-05
0.0295385 0.000993939 1e-05
0.0296894 0.000992359 1e-05
0.0298403 0.000990771 1e-05
0.0299924 0.000989179 1e-05
0.0301445 0.000987557 1e-05
0.0302966 0.000985926 1e-05
0.0304486 0.000984286 1e-05
0.0306007 0.000982637 1e-05
0.030754 0.000980982 1e-05
0.0309072 0.0009793 1e-05
0.0310605 0.000977608 1e-05
0.0312138 0.000975907 1e-05
0.031367 0.000974196 1e-05
0.0315215 0.000972476 1e-05
0.0316759 0.000970731 1e-05
0.0318304 0.000968976 1e-05
0.0319848 0.000967211 1e-05
0.0321393 0.000965436 1e-05
0.0322949 0.000963647 1e-05
0.0324506 0.000961837 1e-05
0.0326062 0.000960016 1e-05
0.0327619 0.000958185 1e-05
0.0329175 0.000956343 1e-05
0.0330744 0.000954484 1e-05
0.0332313 0.000952606 1e-05
0.0333881 0.000950716 1e-05
0.033545 0.000948816 1e-05
[...]
POINT_DATA 11980
 FIELD attributes 1
U 3 11980 float
10.0004 	0.00734813 	0 10.0024 	0.015206 	0 10.0045 	0.0222276 	0 10.0065 	0.0292046 	0 10.0086 	0.0361374 	0 10.0136 	0.0463292 	0 10.0164 	0.0402096 	0 10.0208 	0.0401599 	0 10.0253 	0.0401104 	0 10.0297 	0.0400611 	0 10.0356 	0.0445195 	0 10.0385 	0.0378809 	0 10.0425 	0.0378374 	0 10.0464 	0.0377938 	0 10.0504 	0.0377502 	0 10.0545 	0.0408521 	0 10.0567 	0.0387736 	0 10.0592 	0.0400827 	0 10.0616 	0.0413934 	0 10.064 	0.0427058 	0 10.0662 	0.0451643 	0 10.0677 	0.0452753 	0 10.0691 	0.0464779 	0 10.0704 	0.0476817 	0 10.0717 	0.0488866 	0 10.0729 	0.0499051 	0 10.0729 	0.049967 	0 10.073 	0.0500289 	0 10.0731 	0.0500908 	0 10.0732 	0.0501528 	0 10.0732 	0.0502054 	0 10.0738 	0.0508315 	0 10.0743 	0.0514517 	0 10.0748 	0.0520725 	0 10.0753 	0.0526937 	0 10.0758 	0.0531511 	0 10.0757 	0.0534459 	0 10.0754 	0.0536355 	0 10.075 	0.0538251 	0 10.0747 	0.0540149 	0 10.0741 	0.0539664 	0 10.0737 	0.0541102 	0 10.0726 	0.0540858 	0 10.0715 	0.0540614 	0 10.0705 	0.054037 	0 10.0689 	0.0537435 	0 10.0685 	0.0538223 	0 10.0669 	0.0536875 	0 10.0653 	0.0535526 	0 10.0637 	0.0534177 	0 10.0611 	0.0529965 	0 10.0611 	0.0530486 	0 10.0591 	0.0528523 	0 10.0571 	0.0526559 	0 10.0551 	0.0524595 	0 10.0515 	0.0519641 	0 10.0522 	0.0520145 	0 10.0499 	0.0517912 	0 10.0476 	0.0515679 	0 10.0453 	0.0513444 	0 10.0407 	0.0508138 	0 10.0421 	0.050883 	0 10.0396 	0.0506538 	0 10.0371 	0.0504245 	0 10.0346 	0.0501951 	0 10.0289 	0.0496451 	0 10.0313 	0.049739 	0 10.0287 	0.0495199 	0 10.0261 	0.0493006 	0 10.0234 	0.0490814 	0 10.0165 	0.048534 	0 10.0202 	0.0486618 	0 10.0174 	0.0484534 	0 10.0147 	0.048245 	0 10.012 	0.0480366 	0 10.0039 	0.0474818 	0 10.0088 	0.047642 	0 10.0061 	0.0474823 	0 10.0034 	0.0473226 	0 10.0007 	0.0471629 	0 9.99143 	0.0466661 	0 9.99762 	0.0468862 	0 9.99495 	0.0467245 	0 9.99227 	0.0465627 	0 9.98959 	0.0464008 	0 9.97918 	0.0458419 	0 9.98672 	0.0460478 	0 9.98412 	0.0460102 	0 9.98152 	0.0459727 	0 9.97891 	0.0459351 	0 9.96731 	0.0455718 	0 9.97632 	0.045855 	9.09486e-22 9.97432 	0.0457089 	5.89484e-21 9.97232 	0.0455628 	1.08803e-20 9.97032 	0.0454167 	1.5866e-20 9.95826 	0.0448221 	1.34748e-20 9.96849 	0.0449299 	9.26382e-20 9.96669 	0.0446132 	8.59819e-20 9.96489 	0.0442964 	7.93221e-20 9.96309 	0.0439796 	7.26586e-20 9.95083 	0.0432926 	-1.47288e-20 9.9609 	0.0432473 	-3.99306e-20 9.95915 	0.0429452 	-4.44253e-20 9.95739 	0.042643 	-4.89185e-20 9.95563 	0.0423408 	-5.34101e-20 9.94356 	0.0417631 	-2.10502e-20 9.95318 	0.0415591 	-1.85204e-20 9.95127 	0.0409956 	-1.28931e-20 9.94936 	0.0404319 	-7.26625e-21 9.94745 	0.0398682 	-1.63981e-21 9.93559 	0.039081 	6.91328e-21 9.9448 	0.0387678 	-5.63204e-21 9.9427 	0.0379581 	-2.39242e-20 9.94058 	0.0371482 	-4.22183e-20 9.93846 	0.0363381 	-6.05144e-20 9.9267 	0.0352608 	-8.62986e-20 9.93534 	0.0350131 	-1.21753e-19 9.93288 	0.0341931 	-1.09595e-19 9.93042 	0.0333728 	-9.743e-20 9.92795 	0.0325524 	-8.52574e-20 9.91619 	0.0313444 	-2.94116e-20 9.92409 	0.0312203 	3.35798e-20 9.92124 	0.0304795 	4.68293e-20 9.91838 	0.0297385 	6.00696e-20 9.91551 	0.0289973 	7.33006e-20 9.90382 	0.0277666 	3.61753e-20 9.9109 	0.0276847 	-4.5272e-20 9.90766 	0.0269814 	-5.12319e-20 9.90442 	0.0262779 	-5.71778e-20 9.90117 	0.0255741 	-6.31096e-20 9.88964 	0.024355 	-3.32046e-22 9.89577 	0.0242351 	5.88291e-20 9.89213 	0.0235388 	4.95858e-20 9.88848 	0.0228422 	4.03285e-20 9.88482 	0.0221453 	3.10571e-20 9.87353 	0.0209741 	-2.82169e-20 9.87853 	0.0207889 	-8.17171e-20 9.87443 	0.0200996 	-1.03506e-19 9.87032 	0.01941 	-1.2529e-19 9.86621 	0.0187202 	-1.47068e-19 9.85525 	0.0176294 	-1.34413e-19 9.8589 	0.017375 	-1.52985e-19 9.85432 	0.0166975 	-1.40772e-19 9.84973 	0.0160196 	-1.28555e-19 9.84514 	0.0153415 	-1.16333e-19 9.83469 	0.0143476 	-8.22164e-20 9.83672 	0.0140307 	-6.90133e-20 9.83166 	0.0133697 	-5.08589e-20 9.8266 	0.0127084 	-3.27062e-20 9.82153 	0.0120468 	-1.45551e-20 9.81181 	0.0111526 	1.97488e-21 9.81192 	0.0107677 	0 9.8064 	0.0101188 	0 9.80087 	0.00946967 	0 9.79534 	0.00882022 	0 9.78665 	0.00802108 	0 9.78448 	0.00755451 	-1.63778e-20 9.7785 	0.00691216 	-3.49878e-20 9.77251 	0.00626951 	-5.35995e-20 9.76652 	0.00562655 	-7.22129e-20 9.75921 	0.00492306 	-9.13823e-20 9.75686 	0.004607 	-9.47393e-20 9.75294 	0.00421849 	-9.51852e-20 9.74901 	0.00382986 	-9.56292e-20 9.74508 	0.00344111 	-9.60713e-20 9.74127 	0.00306509 	-9.64969e-20 9.73871 	0.00281336 	-9.72158e-20 9.73614 	0.00256157 	-9.79349e-20 9.73358 	0.00230973 	-9.86542e-20 9.73101 	0.00205783 	-9.93737e-20 9.72595 	0.00169373 	-9.93647e-20 9.72131 	0.00116428 	-7.41464e-20 9.71436 	0.000531875 	-4.55807e-20 9.70741 	-0.000100917 	-1.70243e-20 9.70044 	-0.000734096 	1.15228e-20 9.68459 	-0.00175692 	4.8974e-20 9.68539 	-0.00203074 	4.98387e-20 9.67801 	-0.00265732 	5.09614e-20 9.67062 	-0.00328433 	5.2082e-20 9.66322 	-0.00391175 	5.32004e-20 9.64071 	-0.00517875 	5.64222e-20 9.6468 	-0.00522716 	4.44526e-20 9.63901 	-0.00584785 	3.24803e-20 9.63121 	-0.006469 	2.05069e-20 9.6234 	-0.00709061 	8.53237e-21 9.59456 	-0.00855772 	-1.06725e-21 9.60565 	-0.00842341 	-8.03293e-21 9.59747 	-0.0090385 	-1.94626e-20 9.58928 	-0.00965408 	-3.08912e-20 9.58108 	-0.0102701 	-4.23187e-20 9.54639 	-0.0118857 	-5.37614e-20 9.56207 	-0.011619 	-5.35706e-20 9.55353 	-0.0122307 	-6.08174e-20 9.54498 	-0.0128429 	-6.80611e-20 9.53642 	-0.0134556 	-7.53017e-20 9.49648 	-0.0151652 	-9.39184e-20 9.51626 	-0.0148169 	-1.48647e-19 9.50738 	-0.0154254 	-1.39322e-19 9.4985 	-0.0160346 	-1.30009e-19 9.4896 	-0.0166443 	-1.2071e-19 9.44509 	-0.0183883 	-4.09486e-20 9.46839 	-0.0180095 	-2.61408e-20 9.45921 	-0.0186146 	-1.83206e-20 9.45001 	-0.0192203 	-1.04997e-20 9.44079 	-0.0198266 	-2.67803e-21 9.39245 	-0.0215475 	0 9.41868 	-0.0211867 	0 9.40921 	-0.0217893 	0 9.39972 	-0.0223925 	0 9.39022 	-0.0229963 	0 9.33879 	-0.0246438 	0 9.36735 	-0.0243476 	1.56334e-21 9.35762 	-0.0249497 	8.84298e-21 9.34787 	-0.0255524 	1.61219e-20 9.33811 	-0.0261558 	2.34e-20 9.28434 	-0.0276821 	4.11348e-20 9.31465 	-0.0275001 	1.58609e-19 9.30468 	-0.0281021 	1.6149e-19 9.2947 	-0.0287047 	1.64384e-19 9.28471 	-0.029308 	1.67293e-19 9.2293 	-0.0306611 	4.13227e-20 9.26081 	-0.030636 	2.206e-20 9.25064 	-0.0312364 	1.55524e-20 9.24045 	-0.0318375 	9.04398e-21 9.22755 	-0.0324703 	3.77943e-21 9.17386 	-0.0335729 	1.7382e-20 9.20194 	-0.0337826 	1.03487e-19 9.19572 	-0.034339 	1.13805e-19 9.18534 	-0.0349377 	1.15007e-19 9.16828 	-0.035577 	9.98709e-20 9.1182 	-0.0364138 	3.96021e-21 9.14292 	-0.0368412 	-9.79709e-20 9.14015 	-0.0373997 	-1.28254e-19 9.12962 	-0.0379957 	-1.38352e-19 9.10909 	-0.0385908 	-1.27284e-19 9.06248 	-0.0391824 	-6.09226e-20 9.08404 	-0.0398072 	-1.76321e-19 9.08416 	-0.0404106 	-2.16425e-19 9.07349 	-0.0410035 	-2.18654e-19 9.05016 	-0.0415099 	-1.71584e-19 9.00685 	-0.041879 	-4.6592e-20 9.02546 	-0.0426806 	-2.46403e-20 9.02796 	-0.043366 	-1.07791e-20 9.01717 	-0.0439558 	-3.59187e-21 8.99166 	-0.0443354 	0 8.95144 	-0.0445047 	0 8.96731 	-0.0454623 	0 8.97173 	-0.0462612 	0 8.96084 	-0.0468478 	0 8.9337 	-0.0470691 	2.01299e-21 8.89637 	-0.0470617 	5.2861e-21 8.90974 	-0.0481555 	2.16533e-21 8.91565 	-0.0490935 	0 8.9047 	-0.0496768 	0 8.87641 	-0.0497148 	2.39811e-21 8.84176 	-0.0495528 	5.67533e-21 8.85284 	-0.0507633 	2.55406e-21 8.85989 	-0.0518602 	1.18494e-21 8.84888 	-0.0524404 	7.71038e-21 8.81987 	-0.0522765 	2.42145e-20 8.78771 	-0.0519816 	4.24736e-20 8.79672 	-0.0532909 	1.66506e-19 8.80458 	-0.0545613 	2.83931e-19 8.79354 	-0.0551385 	2.87346e-19 8.76419 	-0.0547595 	1.67009e-19 8.7343 	-0.0543518 	4.29792e-20 8.74143 	-0.0557427 	2.49827e-20 8.74851 	-0.057135 	6.9874e-21 8.73722 	-0.0576697 	2.94769e-22 8.70941 	-0.0571688 	3.4484e-21 8.68161 	-0.0566675 	6.60188e-21 8.68705 	-0.0581246 	3.60813e-21 8.69244 	-0.0595832 	6.15157e-22 8.68153 	-0.0600875 	2.06504e-21 8.65562 	-0.0595109 	-1.81717e-21 8.62972 	-0.0589338 	-5.69841e-21 8.63364 	-0.060443 	-4.86233e-20 8.63752 	-0.0619536 	-9.15519e-20 8.62701 	-0.0624279 	-9.28917e-20 8.60284 	-0.0617913 	-5.36172e-20 8.57868 	-0.0611541 	-1.43409e-20 8.58126 	-0.0627047 	8.37864e-20 8.58378 	-0.0642568 	1.81908e-19 8.57372 	-0.0647024 	1.90361e-19 8.55113 	-0.0640191 	1.08634e-19 8.52855 	-0.0633353 	2.69067e-20 8.52993 	-0.0649208 	1.56493e-20 8.53126 	-0.066508 	4.38852e-21 8.52167 	-0.0669266 	4.85256e-22 8.50051 	-0.0662061 	5.05348e-21 8.47937 	-0.0654852 	9.62346e-21 8.47971 	-0.0670951 	4.14953e-21 8.47999 	-0.0687066 	-1.32941e-21 8.4709 	-0.0690991 	-2.06312e-20 8.45102 	-0.0683536 	-7.01684e-20 8.43117 	-0.0676076 	-1.19708e-19 8.43059 	-0.0692272 	-2.4937e-19 8.42995 	-0.0708484 	-3.79028e-19 8.42137 	-0.0712159 	-3.64041e-19 8.40266 	-0.0704618 	-2.15419e-19 8.38397 	-0.0697072 	-6.67979e-20 8.38258 	-0.0713245 	5.59343e-20 8.38112 	-0.0729397 	1.78338e-19 8.37276 	-0.0732534 	1.75967e-19 8.35542 	-0.0725424 	8.96054e-20 8.33779 	-0.0717956 	3.49331e-22 8.33568 	-0.0734069 	-8.82379e-20 8.33268 	-0.074839 	-1.65739e-19 8.32448 	-0.0751592 	-1.74932e-19 8.3093 	-0.0746152 	-1.13344e-19 8.29262 	-0.0738838 	-3.6439e-20 8.28989 	-0.0754848 	-2.53114e-20 8.28564 	-0.0767324 	-1.42813e-20 8.27758 	-0.0770606 	-3.49801e-21 8.26428 	-0.0766881 	1.3773e-20 8.24848 	-0.0759788 	3.4161e-20 8.24518 	-0.0775675 	1.25661e-20 8.23993 	-0.0786336 	-2.40191e-21 8.23201 	-0.0789715 	-8.14556e-21 8.22034 	-0.0787718 	-3.07082e-21 8.20533 	-0.0780895 	1.17104e-20 8.20154 	-0.0796653 	-4.6597e-21 8.1955 	-0.0805546 	-1.54127e-20 8.18771 	-0.0809038 	-2.17474e-20 8.17746 	-0.0808762 	-3.37737e-20 8.16317 	-0.0802246 	-5.52167e-20 8.15894 	-0.0817873 	5.22617e-20 8.1523 	-0.0825058 	8.58762e-20 8.14462 	-0.0828678 	8.82941e-20 8.13561 	-0.0830103 	6.95317e-20 8.12198 	-0.0823924 	-2.24911e-20 8.11736 	-0.0839421 	6.82613e-20 8.11026 	-0.0844965 	8.4784e-20 8.1027 	-0.0848728 	8.79936e-20 8.09475 	-0.0851825 	8.57113e-20 8.08172 	-0.0846006 	1.01944e-20 8.07676 	-0.0861381 	-6.39388e-22 8.06934 	-0.0865359 	-4.72957e-22 8.06188 	-0.0869277 	-2.46326e-22 8.05442 	-0.0873197 	-1.97167e-23 8.04238 	-0.0868572 	1.80038e-20 8.03682 	-0.0882238 	0 8.02948 	-0.0886322 	0 8.02213 	-0.0890409 	0 8.01476 	-0.0894499 	0 8.00392 	-0.08917 	1.49913e-20 7.99789 	-0.0903673 	0 7.99065 	-0.0907939 	0 7.98339 	-0.0912208 	0 7.97611 	-0.091648 	0 7.96632 	-0.0915467 	0 7.95994 	-0.0925828 	0 7.95278 	-0.0930288 	0 7.9456 	-0.0934751 	0 7.93841 	-0.0939217 	0 7.92953 	-0.0939951 	-8.29252e-21 7.9229 	-0.0948777 	0 7.91582 	-0.0953443 	0 7.90872 	-0.0958113 	0 7.9016 	-0.0962785 	0 7.89352 	-0.0965223 	-1.01877e-20 7.88673 	-0.0972592 	0 7.87972 	-0.0977474 	0 7.87268 	-0.098236 	0 7.86563 	-0.0987249 	0 7.85825 	-0.0991351 	-3.65812e-21 7.85441 	-0.0995092 	-4.83629e-21 7.85051 	-0.0997959 	-1.05854e-20 7.84661 	-0.100083 	-1.63349e-20 7.8427 	-0.100369 	-2.20848e-20 7.83887 	-0.10065 	-2.7703e-20 7.8357 	-0.100876 	-3.19304e-20 7.83252 	-0.101103 	-3.61575e-20 7.82934 	-0.10133 	-4.03843e-20 7.82615 	-0.101557 	-4.46109e-20 7.82332 	-0.101714 	-4.88405e-20 7.8161 	-0.102313 	-4.74634e-20 7.809 	-0.10285 	-4.68401e-20 7.80188 	-0.103387 	-4.62141e-20 7.79473 	-0.103924 	-4.55854e-20 7.78872 	-0.10424 	-4.74579e-20 7.78124 	-0.105001 	-3.71211e-20 7.77418 	-0.105562 	-2.67716e-20 7.7671 	-0.106124 	-1.64208e-20 7.76 	-0.106686 	-6.0685e-21 7.7548 	-0.10688 	0 7.74705 	-0.107801 	-2.65043e-21 7.74003 	-0.108389 	-7.40842e-21 7.73298 	-0.108977 	-1.21657e-20 7.72591 	-0.109565 	-1.69222e-20 7.7215 	-0.109644 	-2.16445e-20 7.71349 	-0.11072 	-5.05155e-20 7.70649 	-0.111335 	-7.00632e-20 7.69946 	-0.111951 	-8.96125e-20 7.69242 	-0.112566 	-1.09163e-19 7.68878 	-0.112536 	-1.01408e-19 7.68049 	-0.113765 	-7.90577e-20 7.67351 	-0.114408 	-6.80471e-20 7.6665 	-0.115052 	-5.703e-20 7.65947 	-0.115697 	-4.60067e-20 7.65658 	-0.115564 	-6.7987e-20 7.64803 	-0.116934 	-8.18841e-20 7.64104 	-0.117616 	-6.40307e-20 7.63404 	-0.118291 	-4.57759e-20 7.62756 	-0.118867 	-2.57293e-20 7.62486 	-0.118738 	7.20089e-21 7.61633 	-0.12012 	1.15237e-20 7.60903 	-0.120967 	8.47417e-21 7.60204 	-0.121673 	3.47174e-21 7.59633 	-0.122139 	0 7.59357 	-0.122062 	0 7.58506 	-0.123458 	0 7.57745 	-0.124466 	0 7.57045 	-0.125204 	0 7.56549 	-0.125566 	0 7.56265 	-0.125541 	0 7.55416 	-0.126953 	0 7.54622 	-0.128118 	-6.74896e-21 7.53921 	-0.128889 	-2.42499e-20 7.53499 	-0.129153 	-4.18031e-20 7.53206 	-0.129181 	-5.93815e-20 7.52357 	-0.13061 	-4.04171e-20 7.51531 	-0.13193 	-2.07126e-20 7.50828 	-0.132735 	2.41206e-21 7.50476 	-0.132907 	8.85928e-21 7.50174 	-0.132988 	1.29258e-20 7.49325 	-0.134436 	4.50968e-20 7.48471 	-0.135885 	7.72663e-20 7.47788 	-0.136697 	9.4326e-20 7.47477 	-0.136832 	7.95781e-20 7.47165 	-0.136966 	6.48287e-20 7.46315 	-0.138435 	4.10998e-20 7.4546 	-0.139905 	1.73625e-20 7.44817 	-0.140745 	2.50961e-21 7.44495 	-0.140933 	1.17532e-20 7.44173 	-0.141121 	2.09975e-20 7.43321 	-0.142612 	8.36159e-20 7.42464 	-0.144104 	1.46237e-19 7.41861 	-0.144975 	1.46888e-19 7.41527 	-0.145216 	8.48906e-20 7.41193 	-0.145457 	2.28917e-20 7.40338 	-0.146972 	1.44342e-20 7.39479 	-0.148487 	5.98018e-21 7.38913 	-0.149389 	6.14545e-21 7.38567 	-0.149684 	1.51662e-20 7.38219 	-0.149978 	2.41879e-20 7.37362 	-0.151518 	8.53353e-20 7.36499 	-0.153058 	1.46486e-19 7.35969 	-0.153993 	1.4717e-19 7.35609 	-0.15434 	8.66729e-20 7.35247 	-0.154688 	2.6174e-20 7.34385 	-0.156254 	1.79647e-20 7.33559 	-0.15775 	9.7466e-21 7.33047 	-0.158696 	1.43368e-21 7.32648 	-0.15919 	0 7.32272 	-0.15959 	0 7.31405 	-0.161183 	0 7.3065 	-0.162574 	0 7.30127 	-0.16356 	0 7.2968 	-0.164235 	0 7.29288 	-0.164688 	0 7.28415 	-0.166309 	0 7.2773 	-0.167598 	0 7.27194 	-0.168625 	0 7.26699 	-0.169477 	5.24051e-21 7.2629 	-0.169983 	2.09215e-20 7.2541 	-0.171633 	3.62434e-21 7.24792 	-0.172823 	6.71124e-21 7.24243 	-0.173891 	1.52031e-20 7.23699 	-0.17492 	2.40231e-20 7.23272 	-0.175478 	3.67251e-20 7.22393 	-0.177142 	1.19801e-19 7.21832 	-0.178252 	1.24276e-19 7.21268 	-0.179361 	1.28729e-19 7.207 	-0.180471 	1.3316e-19 7.20231 	-0.181174 	4.94534e-20 7.19421 	-0.182734 	1.24444e-19 7.18845 	-0.183884 	1.12706e-19 7.18265 	-0.185035 	1.00946e-19 7.17681 	-0.186186 	8.91631e-20 7.1716 	-0.187071 	3.79873e-20 7.16417 	-0.188529 	3.26998e-20 7.15825 	-0.189721 	3.31724e-20 7.15229 	-0.190913 	3.36501e-20 7.14628 	-0.192105 	3.41329e-20 7.14055 	-0.193171 	4.44627e-20 7.13421 	-0.19444 	4.7796e-20 7.12856 	-0.195583 	4.54701e-20 7.12288 	-0.196726 	4.31307e-20 7.11716 	-0.197869 	4.07777e-20 7.11175 	-0.198944 	3.85528e-20 7.11121 	-0.199047 	3.84792e-20 7.11067 	-0.19915 	3.84057e-20 7.11013 	-0.199254 	3.8332e-20 7.10959 	-0.199357 	3.82584e-20 7.10915 	-0.19945 	3.85504e-20 7.10268 	-0.200732 	3.25862e-20 7.09622 	-0.202003 	2.60959e-20 7.08972 	-0.203275 	1.96139e-20 7.08317 	-0.204547 	1.31402e-20 7.07785 	-0.205685 	8.51931e-22 7.0705 	-0.207131 	-2.46754e-22 7.06385 	-0.208443 	-1.7479e-22 7.05716 	-0.209755 	-1.02801e-22 7.05041 	-0.211066 	-3.07861e-23 7.04608 	-0.212123 	0 7.03783 	-0.213733 	-4.82314e-21 7.03098 	-0.215084 	-1.83458e-20 7.02408 	-0.216435 	-3.18626e-20 7.01713 	-0.217786 	-4.53736e-20 7.01379 	-0.218762 	-5.56907e-20 7.00461 	-0.220534 	-4.37067e-20 6.99754 	-0.221923 	-2.87356e-20 6.99043 	-0.223313 	-1.37587e-20 6.98389 	-0.224639 	7.31155e-23 6.98093 	-0.225597 	7.2708e-21 6.97146 	-0.227414 	1.00159e-21 6.9635 	-0.228959 	8.70458e-21 6.95616 	-0.230386 	2.23989e-20 6.95065 	-0.231624 	3.92399e-20 6.94745 	-0.232626 	6.00077e-20 6.93776 	-0.234475 	3.83701e-20 6.92881 	-0.236186 	1.90701e-20 6.92123 	-0.23765 	4.00748e-21 6.91676 	-0.2388 	-2.2153e-21 6.91331 	-0.239844 	-5.48334e-21 6.90339 	-0.241723 	-5.61347e-20 6.89341 	-0.243602 	-1.06768e-19 6.88584 	-0.245076 	-1.07734e-19 6.88217 	-0.246161 	-6.79098e-20 6.87847 	-0.247247 	-2.80856e-20 6.8683 	-0.249155 	-6.84897e-20 6.85807 	-0.251063 	-1.08901e-19 6.85078 	-0.252579 	-1.08607e-19 6.84684 	-0.253703 	-6.62104e-20 6.84287 	-0.254828 	-2.38128e-20 6.83246 	-0.256765 	-6.63472e-20 6.82198 	-0.258702 	-1.08887e-19 6.81494 	-0.260258 	-1.04894e-19 6.81074 	-0.26142 	-5.68418e-20 6.80649 	-0.262582 	-8.78594e-21 6.79582 	-0.264546 	-6.06104e-21 6.78525 	-0.266493 	-3.32862e-21 6.77858 	-0.26806 	-3.83748e-22 6.77381 	-0.269305 	0 6.76928 	-0.270503 	0 6.75834 	-0.272493 	0 6.74892 	-0.274331 	0 6.74198 	-0.275927 	0 6.73602 	-0.277351 	0 6.7312 	-0.278583 	0 6.71998 	-0.280598 	0 6.71174 	-0.282324 	-2.27121e-21 6.70451 	-0.283948 	-5.34471e-21 6.69734 	-0.285552 	-7.80693e-21 6.69223 	-0.286815 	2.2697e-22 6.68113 	-0.288815 	-5.05992e-20 6.67366 	-0.290466 	-4.74558e-20 6.66614 	-0.292116 	-4.42909e-20 6.65856 	-0.293766 	-4.11043e-20 6.65232 	-0.295193 	-5.69433e-21 6.64244 	-0.297073 	-7.31943e-21 6.63467 	-0.298748 	1.221e-21 6.62685 	-0.300423 	9.76274e-21 6.61897 	-0.302097 	1.83058e-20 6.61144 	-0.303707 	2.44313e-20 6.60754 	-0.304458 	3.24775e-20 6.60427 	-0.305149 	3.25537e-20 6.60099 	-0.305841 	3.26271e-20 6.5977 	-0.306532 	3.26977e-20 6.59449 	-0.307204 	3.27635e-20 6.58936 	-0.308212 	3.36477e-20 6.5842 	-0.309219 	3.45289e-20 6.57902 	-0.310227 	3.54072e-20 6.57382 	-0.311235 	3.62826e-20 6.56925 	-0.312165 	4.00759e-20 6.56008 	-0.313967 	4.07498e-20 6.55117 	-0.315682 	3.8596e-20 6.5422 	-0.317396 	3.64471e-20 6.53317 	-0.31911 	3.43033e-20 6.52584 	-0.320614 	1.91421e-20 6.51574 	-0.322583 	3.33482e-20 6.50649 	-0.324316 	2.73833e-20 6.49716 	-0.326048 	2.143e-20 6.48803 	-0.32775 	1.33171e-20 6.48126 	-0.329169 	-1.4903e-20 6.47057 	-0.331208 	-7.89758e-21 6.46057 	-0.333053 	-6.85551e-21 6.45088 	-0.334802 	-8.75373e-21 6.44259 	-0.336382 	-9.31871e-21 6.43547 	-0.337819 	-8.74527e-21 6.4244 	-0.339869 	-7.41567e-21 6.41339 	-0.341884 	-5.57626e-21 6.40333 	-0.343646 	-3.96688e-23 6.39591 	-0.345101 	5.11719e-21 6.38845 	-0.346553 	1.02749e-20 6.37699 	-0.348611 	6.08142e-21 6.36545 	-0.350669 	1.89189e-21 6.35574 	-0.35243 	0 6.34798 	-0.353895 	0 6.34016 	-0.35536 	0 6.32831 	-0.357424 	0 6.31638 	-0.359488 	0 6.30694 	-0.361266 	0 6.29877 	-0.362753 	0 6.29058 	-0.364227 	0 6.27833 	-0.366296 	0 6.26718 	-0.368234 	1.89793e-21 6.25754 	-0.369996 	6.36085e-21 6.24825 	-0.371662 	1.08311e-20 6.23969 	-0.373144 	1.53137e-20 6.22703 	-0.375213 	1.17532e-20 6.21688 	-0.377 	1.22422e-20 6.20685 	-0.378765 	1.30551e-20 6.19676 	-0.380529 	1.38739e-20 6.18746 	-0.382096 	1.59575e-20 6.17563 	-0.384031 	3.63152e-21 6.16528 	-0.385795 	-2.23044e-21 6.15487 	-0.387558 	-8.07979e-21 6.14438 	-0.389321 	-1.39165e-20 6.13387 	-0.391072 	-1.90372e-20 6.13309 	-0.391197 	-1.87465e-20 6.13239 	-0.391311 	-1.85416e-20 6.1317 	-0.391425 	-1.83368e-20 6.13101 	-0.391539 	-1.8132e-20 6.13032 	-0.391652 	-1.7928e-20 6.12071 	-0.393303 	-1.73041e-20 6.11105 	-0.394954 	-1.6697e-20 6.10131 	-0.396604 	-1.61069e-20 6.09152 	-0.398253 	-1.55338e-20 6.08182 	-0.399752 	-4.56865e-21 6.0716 	-0.401686 	1.71911e-20 6.06088 	-0.403445 	1.79763e-20 6.0501 	-0.405203 	1.8786e-20 6.03925 	-0.406955 	1.89276e-20 6.02863 	-0.408404 	-2.06066e-20 6.01828 	-0.410436 	-6.54415e-20 6.00737 	-0.412269 	-8.5195e-20 5.99618 	-0.414018 	-9.43877e-20 5.9851 	-0.415595 	-6.72177e-20 5.97408 	-0.417036 	-1.15258e-20 5.96332 	-0.419053 	-9.16422e-21 5.95248 	-0.421069 	-6.79126e-21 5.94093 	-0.422773 	1.0839e-21 5.92957 	-0.424204 	1.16158e-20 5.91814 	-0.425634 	2.21577e-20 5.90697 	-0.427634 	3.87503e-20 5.89572 	-0.429633 	5.53511e-20 5.88442 	-0.431352 	5.61599e-20 5.87265 	-0.432768 	4.13396e-20 5.86081 	-0.434184 	2.65214e-20 5.84922 	-0.436164 	1.90758e-20 5.83763 	-0.438061 	1.50872e-20 5.82618 	-0.439735 	2.04163e-20 5.81433 	-0.441273 	3.18974e-20 5.80207 	-0.442672 	4.97707e-20 5.79006 	-0.44463 	7.83972e-20 5.77822 	-0.446322 	7.67061e-20 5.76635 	-0.447973 	7.03584e-20 5.7544 	-0.449624 	6.39898e-20 5.74191 	-0.451086 	4.40083e-20 5.73144 	-0.452628 	6.08483e-20 5.72106 	-0.454011 	4.50452e-20 5.71063 	-0.455393 	2.92069e-20 5.70014 	-0.456774 	1.33331e-20 5.69015 	-0.458082 	-1.73583e-21 5.6882