# vtk DataFile Version 2.0
track0
ASCII
DATASET POLYDATA
POINTS 11980 float
-0.0205 0.001 1e-05
-0.0202034 0.00100022 1e-05
-0.0199069 0.00100067 1e-05
-0.0196103 0.00100133 1e-05
-0.0193137 0.00100219 1e-05
-0.0190172 0.00100326 1e-05
-0.0187132 0.00100467 1e-05
-0.0184093 0.00100589 1e-05
-0.0181054 0.00100711 1e-05
-0.0178015 0.00100832 1e-05
-0.0174976 0.00100954 1e-05
-0.0172058 0.00101083 1e-05
-0.016914 0.00101193 1e-05
-0.0166222 0.00101303 1e-05
-0.0163305 0.00101413 1e-05
-0.0160387 0.00101523 1e-05
-0.0157586 0.00101636 1e-05
-0.0154784 0.00101744 1e-05
-0.0151983 0.00101856 1e-05
-0.0149182 0.00101971 1e-05
-0.0146381 0.0010209 1e-05
-0.0143744 0.00102208 1e-05
-0.0141107 0.00102327 1e-05
-0.013847 0.00102449 1e-05
-0.0135834 0.00102574 1e-05
-0.0133607 0.00102682 1e-05
-0.0133472 0.00102688 1e-05
-0.0133338 0.00102695 1e-05
-0.0133203 0.00102702 1e-05
-0.0133069 0.00102708 1e-05
-0.0132934 0.00102715 1e-05
-0.0130353 0.00102844 1e-05
-0.0127771 0.00102974 1e-05
-0.0125189 0.00103106 1e-05
-0.0122607 0.00103239 1e-05
-0.0120025 0.00103374 1e-05
-0.0117547 0.00103505 1e-05
-0.0115068 0.00103637 1e-05
-0.0112589 0.00103769 1e-05
-0.0110111 0.00103901 1e-05
-0.0107632 0.00104034 1e-05
-0.0105252 0.00104161 1e-05
-0.0102873 0.00104289 1e-05
-0.0100493 0.00104417 1e-05
-0.00981133 0.00104545 1e-05
-0.00957337 0.00104672 1e-05
-0.00934491 0.00104794 1e-05
-0.00911645 0.00104916 1e-05
-0.00888799 0.00105038 1e-05
-0.00865954 0.0010516 1e-05
-0.00843108 0.00105281 1e-05
-0.00821175 0.00105397 1e-05
-0.00799242 0.00105512 1e-05
-0.00777309 0.00105628 1e-05
-0.00755376 0.00105742 1e-05
-0.00733443 0.00105857 1e-05
-0.00712387 0.00105966 1e-05
-0.0069133 0.00106075 1e-05
-0.00670273 0.00106183 1e-05
-0.00649216 0.00106291 1e-05
-0.0062816 0.00106399 1e-05
-0.00607944 0.00106501 1e-05
-0.00587729 0.00106604 1e-05
-0.00567514 0.00106706 1e-05
-0.00547298 0.00106807 1e-05
-0.00527083 0.00106908 1e-05
-0.00507675 0.00107004 1e-05
-0.00488267 0.00107101 1e-05
-0.0046886 0.00107196 1e-05
-0.00449452 0.00107292 1e-05
-0.00430044 0.00107387 1e-05
-0.00411412 0.00107477 1e-05
-0.0039278 0.00107568 1e-05
-0.00374147 0.00107658 1e-05
-0.00355515 0.00107747 1e-05
-0.00336883 0.00107837 1e-05
-0.00318995 0.00107922 1e-05
-0.00301107 0.00108007 1e-05
-0.00283219 0.00108092 1e-05
-0.00265331 0.00108176 1e-05
-0.00247443 0.00108261 1e-05
-0.0023027 0.00108341 1e-05
-0.00213097 0.00108422 1e-05
-0.00195924 0.00108502 1e-05
-0.0017875 0.00108582 1e-05
-0.00161577 0.00108662 1e-05
-0.0014509 0.00108737 1e-05
-0.00128603 0.00108813 1e-05
-0.00112116 0.00108889 1e-05
-0.000956289 0.00108965 1e-05
-0.000791418 0.00109041 1e-05
-0.000633135 0.00109114 1e-05
-0.000474851 0.00109186 1e-05
-0.000316567 0.00109259 1e-05
-0.000158284 0.00109331 1e-05
0 0.00109403 1e-05
0.000105677 0.00109451 1e-05
0.000211355 0.00109498 1e-05
0.000317032 0.00109546 1e-05
0.00042271 0.00109593 1e-05
0.000528387 0.00109639 1e-05
0.000634886 0.00109686 1e-05
0.000741385 0.00109732 1e-05
0.000847885 0.00109778 1e-05
0.000954384 0.00109823 1e-05
0.00106088 0.00109869 1e-05
0.00116821 0.00109914 1e-05
0.00127554 0.00109959 1e-05
0.00138286 0.00110003 1e-05
0.00149019 0.00110046 1e-05
0.00159752 0.0011009 1e-05
0.00170568 0.00110132 1e-05
0.00181384 0.00110174 1e-05
0.001922 0.00110216 1e-05
0.00203016 0.00110256 1e-05
0.00213833 0.00110295 1e-05
0.00224733 0.00110334 1e-05
0.00235633 0.00110373 1e-05
0.00246533 0.0011041 1e-05
0.00257434 0.00110447 1e-05
0.00268334 0.00110483 1e-05
0.00279319 0.00110517 1e-05
0.00290304 0.00110552 1e-05
0.00301289 0.00110586 1e-05
0.00312274 0.00110618 1e-05
0.00323259 0.00110651 1e-05
0.00334329 0.00110682 1e-05
0.003454 0.00110713 1e-05
0.0035647 0.00110743 1e-05
0.0036754 0.00110772 1e-05
0.00378611 0.00110801 1e-05
0.00389767 0.00110828 1e-05
0.00400924 0.00110855 1e-05
0.0041208 0.00110882 1e-05
0.00423237 0.00110908 1e-05
0.00434393 0.00110933 1e-05
0.00445636 0.00110957 1e-05
0.00456879 0.0011098 1e-05
0.00468123 0.00111003 1e-05
0.00479366 0.00111025 1e-05
0.00490609 0.00111047 1e-05
0.0050194 0.00111067 1e-05
0.0051327 0.00111087 1e-05
0.00524601 0.00111106 1e-05
0.00535932 0.00111125 1e-05
0.00547262 0.00111142 1e-05
0.00558681 0.00111159 1e-05
0.005701 0.00111175 1e-05
0.00581518 0.00111191 1e-05
0.00592937 0.00111205 1e-05
0.00604356 0.00111219 1e-05
0.00615863 0.00111232 1e-05
0.00627371 0.00111245 1e-05
0.00638878 0.00111257 1e-05
0.00650386 0.00111268 1e-05
0.00661893 0.00111278 1e-05
0.0067349 0.00111288 1e-05
0.00685087 0.00111297 1e-05
0.00696684 0.00111305 1e-05
0.00708281 0.00111313 1e-05
0.00719878 0.00111319 1e-05
0.00727017 0.00111323 1e-05
0.00734157 0.00111326 1e-05
0.00741296 0.00111329 1e-05
0.00748436 0.00111332 1e-05
0.00755339 0.00111335 1e-05
0.00759934 0.00111336 1e-05
0.00764529 0.00111337 1e-05
0.00769124 0.00111339 1e-05
0.00773719 0.0011134 1e-05
0.00778313 0.00111341 1e-05
0.00790091 0.00111343 1e-05
0.00801869 0.00111344 1e-05
0.00813647 0.00111345 1e-05
0.00825425 0.00111345 1e-05
0.00837203 0.00111344 1e-05
0.00849073 0.00111342 1e-05
0.00860942 0.00111339 1e-05
0.00872812 0.00111336 1e-05
0.00884682 0.00111332 1e-05
0.00896551 0.00111327 1e-05
0.00908513 0.00111321 1e-05
0.00920475 0.00111314 1e-05
0.00932437 0.00111307 1e-05
0.00944398 0.00111299 1e-05
0.0095636 0.0011129 1e-05
0.00968415 0.00111279 1e-05
0.0098047 0.00111269 1e-05
0.00992525 0.00111257 1e-05
0.0100458 0.00111245 1e-05
0.0101663 0.00111232 1e-05
0.0102878 0.00111217 1e-05
0.0104093 0.00111202 1e-05
0.0105308 0.00111187 1e-05
0.0106523 0.0011117 1e-05
0.0107738 0.00111153 1e-05
0.0108962 0.00111134 1e-05
0.0110186 0.00111115 1e-05
0.0111411 0.00111095 1e-05
0.0112635 0.00111074 1e-05
0.0113859 0.00111053 1e-05
0.0115093 0.00111029 1e-05
0.0116327 0.00111005 1e-05
0.0117561 0.00110981 1e-05
0.0118795 0.00110956 1e-05
0.0120028 0.0011093 1e-05
0.0121272 0.00110901 1e-05
0.0122515 0.00110873 1e-05
0.0123759 0.00110845 1e-05
0.0125002 0.00110815 1e-05
0.0126245 0.00110785 1e-05
0.0127498 0.00110751 1e-05
0.0128752 0.00110719 1e-05
0.0130005 0.00110685 1e-05
0.0131258 0.00110651 1e-05
0.0132511 0.00110616 1e-05
0.0133774 0.00110578 1e-05
0.0135036 0.00110541 1e-05
0.0136299 0.00110503 1e-05
0.0137562 0.00110464 1e-05
0.0138825 0.00110424 1e-05
0.0140098 0.00110382 1e-05
0.014137 0.0011034 1e-05
0.0142643 0.00110297 1e-05
0.0143915 0.00110253 1e-05
0.0145188 0.00110208 1e-05
0.0146471 0.00110161 1e-05
0.0147753 0.00110114 1e-05
0.0149036 0.00110066 1e-05
0.0150318 0.00110018 1e-05
0.0151601 0.00109968 1e-05
0.0152893 0.00109916 1e-05
0.0154186 0.00109864 1e-05
0.0155478 0.00109811 1e-05
0.0156771 0.00109757 1e-05
0.0158063 0.00109703 1e-05
0.0159366 0.00109646 1e-05
0.0160668 0.00109589 1e-05
0.0161971 0.00109531 1e-05
0.0163274 0.00109472 1e-05
0.0164576 0.00109413 1e-05
0.0165889 0.00109352 1e-05
0.0167201 0.0010929 1e-05
0.0168514 0.00109227 1e-05
0.0169827 0.00109163 1e-05
0.0171139 0.00109098 1e-05
0.0172462 0.00109032 1e-05
0.0173785 0.00108965 1e-05
0.0175108 0.00108897 1e-05
0.0176431 0.00108828 1e-05
0.0177754 0.00108758 1e-05
0.0179087 0.00108687 1e-05
0.018042 0.00108615 1e-05
0.0181753 0.00108542 1e-05
0.0183087 0.00108468 1e-05
0.018442 0.00108393 1e-05
0.0185763 0.00108318 1e-05
0.0187107 0.00108241 1e-05
0.018845 0.00108162 1e-05
0.0189794 0.00108082 1e-05
0.0191137 0.00108003 1e-05
0.0192491 0.00107923 1e-05
0.0193845 0.0010784 1e-05
0.0195199 0.00107757 1e-05
0.0196553 0.00107672 1e-05
0.0197907 0.00107587 1e-05
0.0199272 0.00107502 1e-05
0.0200636 0.00107415 1e-05
0.0202001 0.00107326 1e-05
0.0203365 0.00107236 1e-05
0.020473 0.00107146 1e-05
0.0206105 0.00107057 1e-05
0.020748 0.00106965 1e-05
0.0208855 0.0010687 1e-05
0.021023 0.00106775 1e-05
0.0211606 0.00106681 1e-05
0.0212991 0.00106586 1e-05
0.0214377 0.00106489 1e-05
0.0215763 0.0010639 1e-05
0.0217149 0.00106289 1e-05
0.0218535 0.0010619 1e-05
0.0219931 0.0010609 1e-05
0.0221328 0.00105988 1e-05
0.0222724 0.00105884 1e-05
0.0224121 0.00105778 1e-05
0.0225517 0.00105674 1e-05
0.0226925 0.00105569 1e-05
0.0228332 0.00105462 1e-05
0.022974 0.00105352 1e-05
0.0231147 0.00105242 1e-05
0.0232555 0.00105132 1e-05
0.0233973 0.00105023 1e-05
0.0235391 0.0010491 1e-05
0.023681 0.00104795 1e-05
0.0238228 0.0010468 1e-05
0.0239647 0.00104565 1e-05
0.0241076 0.0010445 1e-05
0.0242505 0.00104333 1e-05
0.0243935 0.00104213 1e-05
0.0245364 0.00104092 1e-05
0.0246794 0.00103972 1e-05
0.0248234 0.00103852 1e-05
0.0249675 0.0010373 1e-05
0.0251115 0.00103604 1e-05
0.0252556 0.00103478 1e-05
0.0253996 0.00103353 1e-05
0.0255448 0.00103228 1e-05
0.02569 0.00103101 1e-05
0.0258351 0.0010297 1e-05
0.0259803 0.00102839 1e-05
0.0261255 0.00102709 1e-05
0.0262718 0.00102578 1e-05
0.0264181 0.00102445 1e-05
0.0265644 0.0010231 1e-05
0.0267107 0.00102173 1e-05
0.026857 0.00102038 1e-05
0.0270044 0.00101902 1e-05
0.0271519 0.00101763 1e-05
0.0272993 0.00101622 1e-05
0.0274468 0.00101481 1e-05
0.0275942 0.0010134 1e-05
0.0277428 0.00101198 1e-05
0.0278914 0.00101054 1e-05
0.0280399 0.00100908 1e-05
0.0281885 0.00100761 1e-05
0.0283371 0.00100614 1e-05
0.0284869 0.00100467 1e-05
0.0286366 0.00100317 1e-05
0.0287863 0.00100165 1e-05
0.0289361 0.00100013 1e-05
0.0290858 0.000998603 1e-05
0.0292367 0.000997072 1e-05
0.0293876 0.000995511 1e-05
0.0295385 0.000993939 1e-05
0.0296894 0.000992359 1e-05
0.0298403 0.000990771 1e-05
0.0299924 0.000989179 1e-05
0.0301445 0.000987557 1e-05
0.0302966 0.000985926 1e-05
0.0304486 0.000984286 1e-05
0.0306007 0.000982637 1e-05
0.030754 0.000980982 1e-05
0.0309072 0.0009793 1e-05
0.0310605 0.000977608 1e-05
0.0312138 0.000975907 1e-05
0.031367 0.000974196 1e-05
0.0315215 0.000972476 1e-05
0.0316759 0.000970731 1e-05
0.0318304 0.000968976 1e-05
0.0319848 0.000967211 1e-05
0.0321393 0.000965436 1e-05
0.0322949 0.000963647 1e-05
0.0324506 0.000961837 1e-05
0.0326062 0.000960016 1e-05
0.0327619 0.000958185 1e-05
0.0329175 0.000956343 1e-05
0.0330744 0.000954484 1e-05
0.0332313 0.000952606 1e-05
0.0333881 0.000950716 1e-05
0.033545 0.000948816 1e-05
[...]
POINT_DATA 11980
 FIELD attributes 2
p 1 11980 float
-4.82916 -4.82849 -4.82493 -4.82129 -4.81757 -4.8093 -4.82323 -4.83827 -4.85331 -4.86835 -4.89283 -4.91463 -4.94459 -4.97456 -5.00452 -5.0373 -5.05299 -5.07472 -5.09645 -5.11819 -5.14155 -5.16048 -5.18143 -5.20238 -5.22334 -5.24104 -5.24211 -5.24317 -5.24424 -5.2453 -5.24636 -5.26807 -5.28977 -5.31148 -5.33318 -5.35462 -5.37343 -5.39205 -5.41067 -5.4293 -5.44735 -5.46303 -5.47844 -5.49385 -5.50925 -5.52411 -5.53795 -5.55155 -5.56515 -5.57875 -5.5919 -5.60469 -5.61723 -5.62976 -5.64229 -5.6544 -5.66629 -5.67789 -5.68949 -5.70108 -5.71226 -5.72334 -5.73414 -5.74495 -5.75576 -5.76621 -5.77667 -5.78687 -5.79707 -5.80727 -5.81715 -5.82713 -5.83691 -5.8467 -5.85649 -5.86606 -5.87573 -5.88513 -5.89453 -5.90393 -5.91311 -5.92257 -5.93217 -5.94177 -5.95137 -5.96111 -5.97106 -5.98075 -5.99045 -6.00014 -6.00966 -6.01966 -6.03048 -6.04131 -6.05214 -6.06316 -6.07311 -6.0838 -6.09449 -6.10519 -6.11543 -6.12472 -6.13355 -6.14237 -6.1512 -6.15922 -6.16636 -6.17454 -6.18272 -6.19089 -6.1998 -6.20796 -6.21657 -6.22518 -6.2338 -6.24252 -6.25064 -6.25778 -6.26492 -6.27206 -6.27834 -6.28504 -6.29046 -6.29588 -6.30129 -6.30566 -6.31129 -6.31588 -6.32047 -6.32505 -6.3287 -6.33357 -6.33755 -6.34154 -6.34552 -6.34869 -6.3526 -6.35576 -6.35893 -6.36209 -6.36466 -6.36756 -6.36991 -6.37226 -6.37461 -6.3766 -6.37876 -6.38057 -6.38239 -6.3842 -6.38582 -6.38763 -6.38922 -6.39081 -6.3924 -6.39391 -6.39552 -6.39701 -6.3985 -6.4 -6.40146 -6.40236 -6.40322 -6.40408 -6.40493 -6.40576 -6.40631 -6.40687 -6.40742 -6.40797 -6.40856 -6.40986 -6.4112 -6.41255 -6.41389 -6.41543 -6.41655 -6.41789 -6.41924 -6.42058 -6.42234 -6.42326 -6.42464 -6.42602 -6.42741 -6.4295 -6.43021 -6.43169 -6.43318 -6.43466 -6.43722 -6.43775 -6.43936 -6.44097 -6.44259 -6.44562 -6.44593 -6.44763 -6.44934 -6.45105 -6.45453 -6.45462 -6.45644 -6.45825 -6.46007 -6.46401 -6.46396 -6.46592 -6.46787 -6.46983 -6.4742 -6.47407 -6.47617 -6.47827 -6.48037 -6.48511 -6.48493 -6.48716 -6.4894 -6.49164 -6.49671 -6.49651 -6.49888 -6.50126 -6.50381 -6.50898 -6.50909 -6.51136 -6.51388 -6.51684 -6.52197 -6.52242 -6.5246 -6.52727 -6.53061 -6.53567 -6.53648 -6.53862 -6.54144 -6.5451 -6.55009 -6.55125 -6.5534 -6.55636 -6.5603 -6.56522 -6.56673 -6.56892 -6.57203 -6.57621 -6.58105 -6.58289 -6.58516 -6.58842 -6.59278 -6.59756 -6.59972 -6.60211 -6.6055 -6.61002 -6.61474 -6.6172 -6.61973 -6.62325 -6.62789 -6.63257 -6.63532 -6.63806 -6.64175 -6.64639 -6.65103 -6.65404 -6.65705 -6.66086 -6.66549 -6.67012 -6.67337 -6.67663 -6.68057 -6.6852 -6.68984 -6.69334 -6.69684 -6.70091 -6.70553 -6.71016 -6.71389 -6.71763 -6.7218 -6.72641 -6.73102 -6.73495 -6.73888 -6.74314 -6.74773 -6.75231 -6.75639 -6.76048 -6.76482 -6.76941 -6.77401 -6.77821 -6.78242 -6.78684 -6.79146 -6.79609 -6.80039 -6.80472 -6.80922 -6.81385 -6.81851 -6.8229 -6.82734 -6.8319 -6.83656 -6.84126 -6.84572 -6.85025 -6.85487 -6.85955 -6.8643 -6.86882 -6.87342 -6.87809 -6.88281 -6.88759 -6.89216 -6.89682 -6.90153 -6.90626 -6.91108 -6.91567 -6.92039 -6.92512 -6.92987 -6.93471 -6.93932 -6.94407 -6.94883 -6.95358 -6.95843 -6.96307 -6.96783 -6.97259 -6.97735 -6.98218 -6.98683 -6.99159 -6.99634 -7.00109 -7.0059 -7.01056 -7.01529 -7.02002 -7.02476 -7.02953 -7.03418 -7.03888 -7.04358 -7.04828 -7.053 -7.05762 -7.06227 -7.06692 -7.07157 -7.07623 -7.07879 -7.08136 -7.08394 -7.08651 -7.08902 -7.09105 -7.09308 -7.09511 -7.09714 -7.09917 -7.10368 -7.1082 -7.11271 -7.11722 -7.12175 -7.12617 -7.13059 -7.13501 -7.13944 -7.14388 -7.1482 -7.15251 -7.15682 -7.16113 -7.16547 -7.16968 -7.17386 -7.17805 -7.18224 -7.18645 -7.19053 -7.19457 -7.19861 -7.20265 -7.20668 -7.21062 -7.21449 -7.21835 -7.22222 -7.22607 -7.22984 -7.23354 -7.23721 -7.24088 -7.24453 -7.24811 -7.25162 -7.25509 -7.25853 -7.26195 -7.26531 -7.26862 -7.27185 -7.27503 -7.27819 -7.28131 -7.2844 -7.28737 -7.29026 -7.29313 -7.29599 -7.29884 -7.30152 -7.30409 -7.30666 -7.30922 -7.31178 -7.31416 -7.31639 -7.31863 -7.32087 -7.32311 -7.32517 -7.32704 -7.32891 -7.33081 -7.3327 -7.33441 -7.3359 -7.33738 -7.3389 -7.34042 -7.34176 -7.34282 -7.34389 -7.345 -7.34609 -7.347 -7.34767 -7.34829 -7.34897 -7.34957 -7.35002 -7.35029 -7.35044 -7.35065 -7.35072 -7.35068 -7.35054 -7.35017 -7.34989 -7.34939 -7.34883 -7.34825 -7.34735 -7.34653 -7.34542 -7.34432 -7.34322 -7.34182 -7.34036 -7.33867 -7.33698 -7.33529 -7.3334 -7.33126 -7.32896 -7.32665 -7.32436 -7.32195 -7.3193 -7.31656 -7.31383 -7.3111 -7.30853 -7.30829 -7.30805 -7.3078 -7.30756 -7.30731 -7.30374 -7.30016 -7.29659 -7.29302 -7.28932 -7.2852 -7.28091 -7.27663 -7.27235 -7.26781 -7.26311 -7.25809 -7.25307 -7.24806 -7.24262 -7.23733 -7.23154 -7.22575 -7.21989 -7.21359 -7.20753 -7.20109 -7.1945 -7.18768 -7.18055 -7.17367 -7.1666 -7.15918 -7.15134 -7.14336 -7.13563 -7.12791 -7.1196 -7.11072 -7.10186 -7.09325 -7.08466 -7.07546 -7.06568 -7.05589 -7.04638 -7.03688 -7.02677 -7.01604 -7.00532 -6.99487 -6.9844 -6.9733 -6.96168 -6.94998 -6.93857 -6.9269 -6.91481 -6.90244 -6.88974 -6.87734 -6.86442 -6.85132 -6.83819 -6.82447 -6.81098 -6.79684 -6.7827 -6.76856 -6.75404 -6.73923 -6.72402 -6.70882 -6.69362 -6.67831 -6.67179 -6.66516 -6.65852 -6.65188 -6.64544 -6.63583 -6.62623 -6.61663 -6.60703 -6.59727 -6.58018 -6.56293 -6.54569 -6.52845 -6.51077 -6.49284 -6.47447 -6.45611 -6.43769 -6.41865 -6.39969 -6.38038 -6.36088 -6.34101 -6.32082 -6.30071 -6.28055 -6.25991 -6.23854 -6.21718 -6.19591 -6.17465 -6.15276 -6.1302 -6.10765 -6.08521 -6.06278 -6.03964 -6.01592 -5.99218 -5.96855 -5.9446 -5.92021 -5.89563 -5.87069 -5.84587 -5.82032 -5.79471 -5.76912 -5.74313 -5.71675 -5.68993 -5.66311 -5.6363 -5.60947 -5.60768 -5.60587 -5.60405 -5.60223 -5.60042 -5.57427 -5.54813 -5.522 -5.49587 -5.46947 -5.44051 -5.41134 -5.38218 -5.35302 -5.32329 -5.29323 -5.26295 -5.23258 -5.20189 -5.17093 -5.13966 -5.1084 -5.07675 -5.04458 -5.01241 -4.97992 -4.94744 -4.91448 -4.8811 -4.84772 -4.81402 -4.78017 -4.74589 -4.71147 -4.67689 -4.642 -4.6066 -4.57113 -4.53566 -4.49999 -4.46913 -4.43798 -4.40683 -4.37568 -4.34619 -4.34037 -4.33455 -4.32874 -4.32292 -4.31703 -4.27934 -4.24161 -4.20389 -4.16618 -4.128 -4.0894 -4.05052 -4.01166 -3.97258 -3.93306 -3.89334 -3.85357 -3.81357 -3.77295 -3.73231 -3.69147 -3.65063 -3.60932 -3.5676 -3.52586 -3.48392 -3.4418 -3.39926 -3.35663 -3.31383 -3.27082 -3.22721 -3.18361 -3.14003 -3.09633 -3.0775 -3.0585 -3.0395 -3.0205 -3.00197 -2.9763 -2.95063 -2.92496 -2.8993 -2.87337 -2.82796 -2.78242 -2.7369 -2.69131 -2.64514 -2.59886 -2.55248 -2.506 -2.45901 -2.41191 -2.36468 -2.31746 -2.26983 -2.22184 -2.17384 -2.1257 -2.0774 -2.02872 -1.97999 -1.93112 -1.88208 -1.83254 -1.78302 -1.73351 -1.68394 -1.67482 -1.66561 -1.65641 -1.64721 -1.63811 -1.597 -1.55591 -1.51481 -1.47373 -1.43227 -1.38137 -1.33034 -1.27933 -1.2281 -1.17653 -1.1249 -1.07328 -1.02146 -0.969244 -0.917002 -0.864689 -0.812371 -0.759608 -0.706782 -0.653897 -0.600938 -0.547608 -0.494229 -0.44086 -0.387426 -0.369514 -0.351491 -0.333468 -0.315447 -0.297742 -0.261761 -0.225784 -0.189812 -0.153844 -0.117613 -0.0631974 -0.00875528 0.0456767 0.10026 0.155103 0.209989 0.264863 0.319832 0.375038 0.43028 0.485572 0.540904 0.596481 0.652047 0.707647 0.763323 0.819238 0.875144 0.931041 0.986974 0.987901 0.988831 0.989762 0.990692 0.991622 1.04693 1.10223 1.15752 1.2128 1.26836 1.32487 1.38135 1.4378 1.49443 1.55114 1.60785 1.66456 1.72138 1.77818 1.83502 1.89188 1.94882 2.0058 2.06276 2.11972 2.1384 2.15711 2.17581 2.19451 2.21294 2.25138 2.28981 2.32824 2.36667 2.4052 2.46243 2.51955 2.57665 2.6338 2.69102 2.74822 2.80541 2.86256 2.91963 2.97675 3.03385 3.09094 3.14801 3.20508 3.26209 3.28135 3.30059 3.31982 3.33906 3.35802 3.39583 3.43363 3.47144 3.50924 3.54704 3.60402 3.66085 3.71764 3.77438 3.83114 3.88786 3.94457 4.00117 4.05755 4.11398 4.17038 4.22664 4.28286 4.33907 4.39529 4.40112 4.40692 4.41272 4.41852 4.4243 4.47451 4.52472 4.57492 4.6251 4.67518 4.73099 4.78672 4.84228 4.89763 4.95302 5.00835 5.06364 5.1187 5.17367 5.22853 5.2656 5.30248 5.33934 5.3762 5.41228 5.43016 5.44805 5.46593 5.48381 5.50162 5.55594 5.6101 5.66426 5.71828 5.77218 5.82597 5.87976 5.93326 5.98645 6.03969 6.09281 6.14567 6.19842 6.25117 6.30391 6.30867 6.3134 6.31813 6.32285 6.32757 6.37515 6.42273 6.4703 6.51784 6.56512 6.61695 6.66876 6.72026 6.77144 6.82266 6.87372 6.92462 6.97525 7.02589 7.07631 7.09622 7.116 7.13573 7.15547 7.17511 7.2054 7.23568 7.26597 7.2962 7.32621 7.37577 7.42517 7.47444 7.52326 7.57207 7.62075 7.66934 7.7175 7.76561 7.8135 7.83686 7.86002 7.88311 7.90621 7.92928 7.95362 7.97796 8.00229 8.02657 8.05064 8.09759 8.14434 8.191 8.2372 8.28332 8.3293 8.37522 8.42065 8.466 8.51113 8.53374 8.55615 8.57847 8.6008 8.62327 8.64553 8.6678 8.69006 8.71226 8.73424 8.77834 8.82222 8.86602 8.90934 8.95255 8.99561 9.03859 9.08107 9.12348 9.16563 9.1869 9.20794 9.2289 9.24987 9.27114 9.29173 9.31231 9.3329 9.35342 9.37372 9.41476 9.45557 9.49632 9.53659 9.57674 9.61669 9.6566 9.69597 9.73525 9.77429 9.79661 9.81866 9.84065 9.86263 9.8852 9.90154 9.91788 9.93421 9.9505 9.9666 10.0044 10.042 10.0796 10.1168 10.1537 10.1905 10.2272 10.2634 10.2994 10.3352 10.3636 10.3915 10.4194 10.4473 10.4767 10.4836 10.4905 10.4974 10.5043 10.5112 10.5456 10.5799 10.6141 10.6483 10.682 10.7154 10.7488 10.7819 10.8145 10.8471 10.8794 10.9113 10.9431 10.9749 11.0065 11.0163 11.0261 11.0358 11.0455 11.0555 11.0766 11.0977 11.1188 11.1399 11.1607 11.1908 11.2207 11.2505 11.2801 11.3095 11.3385 11.3675 11.3962 11.4245 11.4527 11.4806 11.5082 11.5358 11.5634 11.5907 11.6007 11.6105 11.6202 11.63 11.6403 11.6568 11.6733 11.6898 11.7062 11.7224 11.7479 11.7737 11.7995 11.8258 11.8527 11.8791 11.9055 11.9261 11.9416 11.957 11.9718 11.9865 12.012 12.0453 12.0792 12.1127 12.131 12.1451 12.1591 12.1723 12.1724 12.1727 12.1731 12.1734 12.1737 12.18 12.1862 12.1924 12.1994 12.2107 12.2216 12.2324 12.2424 12.2516 12.2608 12.2691 12.2766 12.2827 12.2888 12.2935 12.2953 12.2964 12.2974 12.2983 12.2994 12.3008 12.3023 12.3036 12.305 12.3057 12.3056 12.3043 12.303 12.3008 12.2978 12.2931 12.2883 12.2819 12.2737 12.2655 12.2555 12.2443 12.2319 12.2195 12.2055 12.1953 12.1837 12.172 12.1603 12.1469 12.1406 12.1342 12.1279 12.1216 12.1146 12.0911 12.0664 12.0417 12.0165 11.9891 11.9587 11.9278 11.8948 11.859 11.823 11.7838 11.7445 11.7022 11.6567 11.611 11.5618 11.5102 11.4569 11.4036 11.3472 11.2906 11.231 11.1713 11.1116 11.0359 11.0338 11.0318 11.0298 11.0277 11.0256 10.9494 10.873 10.7966 10.72 10.64 10.5531 10.462 10.3709 10.2781 10.1816 10.0795 9.97589 9.86799 9.75383 9.63902 9.51806 9.39703 9.27052 9.13871 9.00679 8.8682 8.72929 8.57895 8.42048 8.26041 8.09272 7.924 7.75437 7.58429 7.41278 7.23335 7.02364 6.81377 6.60395 6.377 6.14445 5.92838 5.71226 5.4961 5.28375 5.20294 5.10548 5.00807 4.91071 4.80123 4.5906 4.37973 4.16865 3.95735 3.71354 3.39502 3.13577 2.87576 2.61503 2.49309 2.37781 1.94274 1.51283 0.943496 0