/*--------------------------------*- C++ -*----------------------------------*\
| =========                 |                                                 |
| \\      /  F ield         | OpenFOAM: The Open Source CFD Toolbox           |
|  \\    /   O peration     | Version:  5.0                                   |
|   \\  /    A nd           | Web:      www.OpenFOAM.org                      |
|    \\/     M anipulation  |                                                 |
\*---------------------------------------------------------------------------*/
FoamFile
{
    version     2.0;
    format      ascii;
    class       volScalarField;
    location    "100";
    object      epsilon;
}
// * * * * * * * * * * * * * * * * * * * * * * * * * * * * * * * * * * * * * //

dimensions      [0 2 -3 0 0 0 0];

internalField   nonuniform List<scalar> 
12225
(
285.523
270.712
257.907
243.825
232.441
223.117
216.773
212.722
212.758
213.987
217.286
220.96
228.249
232.944
241.585
247.325
254.655
265.893
52.4869
91.9002
106.961
114.778
124.832
136.843
152.703
170.011
191.238
211.133
235.586
255.875
281.888
300.1
326.611
340.885
369.496
377.95
20.526
34.8809
44.6666
50.4826
55.3854
59.6309
64.6564
69.6817
76.3359
83.2676
91.52
99.506
108.375
117.373
125.998
136.348
143.738
156.727
16.003
19.4888
24.0766
27.5698
30.4914
32.8793
35.1517
37.3088
39.5044
41.9474
44.3546
47.2647
49.7359
53.1717
55.5622
59.5193
61.8733
66.428
15.0386
15.7133
17.3969
19.0814
20.6368
22.0303
23.2444
24.438
25.4445
26.6069
27.5298
28.7816
29.6533
31.032
31.8707
33.3622
34.229
35.8905
14.7897
14.8258
15.2493
15.8686
16.5663
17.2889
17.9229
18.5873
19.1195
19.7394
20.1966
20.8089
21.2184
21.842
22.223
22.8655
23.2375
23.9486
14.7657
14.6147
14.6409
14.726
14.9345
15.2207
15.4912
15.8102
16.0712
16.385
16.6198
16.9247
17.1357
17.4359
17.6273
17.9304
18.1067
18.4443
14.7686
14.5867
14.4659
14.3802
14.3676
14.3895
14.4395
14.5338
14.6185
14.7375
14.8316
14.9583
15.0499
15.1802
15.2662
15.4001
15.4813
15.6369
14.768
14.591
14.4349
14.2963
14.185
14.1044
14.0398
14.0067
13.9814
13.9787
13.9811
13.9921
14.0048
14.0309
14.0493
14.0828
14.1083
14.1539
14.7665
14.594
14.432
14.2821
14.1429
14.0219
13.9114
13.8193
13.7369
13.6697
13.6101
13.5633
13.5181
13.4874
13.4522
13.4352
13.4042
13.4042
14.7659
14.5945
14.4322
14.2803
14.1361
14.0032
13.8781
13.7643
13.658
13.5627
13.4733
13.3949
13.3195
13.2558
13.1914
13.1408
13.0842
13.0461
14.7657
14.5943
14.4321
14.2798
14.1353
13.9998
13.8714
13.7517
13.6384
13.5335
13.4338
13.3427
13.2554
13.1767
13.0999
13.0326
12.9646
12.9076
14.7657
14.5941
14.432
14.2794
14.135
13.9989
13.8698
13.7484
13.6331
13.5248
13.4218
13.3255
13.2335
13.1481
13.066
12.9904
12.917
12.8503
14.7657
14.594
14.4318
14.2791
14.1346
13.9983
13.8692
13.7472
13.6315
13.5222
13.4183
13.3202
13.2269
13.1388
13.0549
12.9758
12.9002
12.8292
14.7657
14.5938
14.4317
14.2787
14.1342
13.9977
13.8686
13.7464
13.6307
13.5211
13.4171
13.3185
13.2249
13.1361
13.0516
12.9716
12.8953
12.823
14.7657
14.5938
14.4316
14.2785
14.1339
13.9973
13.8681
13.7458
13.63
13.5203
13.4162
13.3175
13.2237
13.1348
13.0502
12.9699
12.8935
12.8208
14.7657
14.5937
14.4315
14.2783
14.1337
13.997
13.8677
13.7453
13.6295
13.5196
13.4155
13.3167
13.2229
13.1338
13.0492
12.9688
12.8923
12.8195
14.7657
14.5937
14.4314
14.2782
14.1335
13.9968
13.8674
13.745
13.6291
13.5192
13.415
13.3161
13.2223
13.1331
13.0484
12.9679
12.8913
12.8185
14.7657
14.5937
14.4314
14.2782
14.1335
13.9967
13.8673
13.7449
13.6289
13.519
13.4147
13.3158
13.2219
13.1327
13.048
12.9674
12.8908
12.8179
14.7657
14.5937
14.4314
14.2782
14.1336
13.9968
13.8675
13.745
13.6291
13.5191
13.4149
13.316
13.2222
13.1329
13.0483
12.9677
12.8911
12.8182
14.7657
14.5937
14.4315
14.2784
14.1338
13.9971
13.8678
13.7454
13.6295
13.5197
13.4155
13.3168
13.2231
13.1341
13.0496
12.9693
12.893
12.8204
14.7657
14.5937
14.4316
14.2785
14.1341
13.9975
13.8685
13.7465
13.6312
13.5221
13.4192
13.3215
13.2295
13.1421
13.0597
12.9813
12.9077
12.8372
14.7659
14.5937
14.4318
14.2788
14.1353
14.0002
13.8742
13.756
13.6464
13.5436
13.4486
13.3593
13.2772
13.1994
13.1284
13.0603
12.9991
12.9389
14.7661
14.5928
14.4329
14.2844
14.1515
14.0322
13.929
13.8376
13.7593
13.6894
13.6307
13.577
13.5328
13.4905
13.4574
13.4229
13.3987
13.3691
14.7641
14.5936
14.461
14.3604
14.303
14.2767
14.2796
14.2939
14.3202
14.3529
14.3957
14.4343
14.4821
14.5213
14.5714
14.6082
14.6607
14.6927
14.757
14.6921
14.7579
14.9172
15.1827
15.4611
15.7474
16.0119
16.272
16.5034
16.7354
16.9378
17.1496
17.3295
17.5291
17.6914
17.886
18.0325
14.9574
15.4344
16.5693
17.6884
18.7051
19.5676
20.3367
20.9964
21.6184
22.1649
22.717
23.2086
23.7367
24.2004
24.7276
25.1764
25.717
26.1563
16.2579
20.9389
25.0149
27.7587
29.784
31.358
32.7754
34.0568
35.3564
36.6128
37.9697
39.2904
40.7514
42.1338
43.701
45.1533
46.8566
48.3263
29.9428
47.2246
54.8702
58.6724
61.6123
64.4292
67.5749
70.972
74.7276
78.6991
82.9646
87.3167
91.8692
96.404
101.042
105.552
110.09
114.475
165.79
160.073
154.899
149.564
144.48
139.677
135.614
132.109
129.269
126.971
125.317
124.039
123.332
122.818
122.815
122.962
123.244
123.793
3.55399
2.23649
3.33789
4.30655
5.17792
5.97147
6.70351
7.37155
7.96004
8.43082
8.72215
8.68629
8.01099
8.05609
8.45613
38.1495
42.0614
45.4052
47.5241
48.3048
47.341
44.5527
49.4566
55.881
63.0414
71.0081
79.7769
89.2838
99.5317
110.435
121.983
134.078
146.706
159.761
173.232
187.016
201.111
215.424
229.963
244.644
259.488
274.419
289.47
304.576
319.77
334.993
350.282
365.584
380.933
396.285
411.669
427.045
442.439
457.814
473.191
488.535
503.862
519.143
534.386
549.569
564.69
579.738
594.698
609.573
624.331
638.991
653.507
667.908
682.135
696.239
710.152
723.951
737.553
751.061
764.374
777.619
790.683
803.715
816.604
829.516
842.317
855.202
868.026
881.004
893.955
907.119
920.312
933.777
947.376
961.283
975.441
989.789
1004.33
1019
1033.78
1048.56
1063.28
1077.83
1092.18
1106.4
1120.85
1134.42
1148.28
1161.71
1173.83
1184.83
1191.01
1188.89
1200.29
1227.07
1230.78
1232.81
1239.99
1259.14
1256.24
1261.09
1273.75
1271.61
1269.84
1277.7
1271.74
1268.11
1260.96
1251.87
1240.78
1227.8
1212.86
1196.01
1177.1
1156.29
1133.61
1109.21
1083.21
1055.82
1026.77
996.4
965.031
932.869
900.15
867.091
833.707
800.442
768.027
735.099
704.457
682.331
662.541
643.162
623.987
605.107
586.568
568.444
550.82
533.385
516.242
499.871
484.152
468.817
453.937
439.605
425.911
412.893
400.493
388.673
377.447
366.801
356.711
347.155
338.119
329.567
321.48
313.795
306.536
299.472
292.975
285.898
280.343
271.395
266.551
243.877
7.9359
4.86276
4.6034
4.83853
5.27015
5.80987
6.43021
7.11833
7.87071
8.68668
9.60834
10.7486
12.3697
14.3943
17.2126
21.6995
24.6298
27.2175
29.7309
32.313
35.1242
38.2367
42.2158
46.5658
51.1891
56.0703
61.1874
66.499
71.9727
77.5808
83.3084
89.134
95.0484
101.035
107.089
113.198
119.36
125.566
131.817
138.107
144.438
150.807
157.218
163.669
170.153
176.662
183.199
189.759
196.344
202.947
209.569
216.206
222.857
229.516
236.182
242.849
249.516
256.177
262.829
269.468
276.089
282.688
289.26
295.801
302.306
308.773
315.193
321.567
327.887
334.152
340.356
346.505
352.591
358.622
364.59
370.507
376.365
382.18
387.945
393.676
399.366
405.035
410.673
416.301
421.905
427.511
433.103
438.707
444.31
449.933
455.547
461.131
466.67
472.145
477.541
482.831
487.999
493.025
497.917
502.68
507.304
511.665
515.859
519.71
523.154
526.155
528.66
531.23
535.331
539.004
541.663
542.129
544.87
549.257
549.825
551.724
553.747
554.088
554.346
556.711
554.881
553.535
551.25
548.206
544.518
540.157
535.113
529.378
522.914
515.742
507.828
499.191
489.863
479.886
469.254
458.05
446.361
434.258
421.815
409.11
396.184
383.13
370.106
356.961
344.013
332.516
321.726
311.241
300.953
290.874
281.028
271.438
262.137
253.047
243.989
235.216
226.77
218.597
210.705
203.108
195.832
188.898
182.296
176.011
170.042
164.384
159.025
153.955
149.167
144.645
140.383
136.358
132.583
128.982
125.689
122.409
119.641
117.09
116.222
117.133
14.393
7.89079
6.81817
6.71706
6.97575
7.43999
8.06441
8.84405
9.79453
10.9504
12.3469
14.0243
16.0336
18.3112
20.872
23.6919
26.4003
29.064
31.7444
34.5017
37.385
40.6657
44.3134
48.1802
52.2058
56.3754
60.6254
64.9304
69.3226
73.8027
78.3661
83.0041
87.7116
92.4843
97.3223
102.217
107.165
112.163
117.209
122.3
127.436
132.614
137.833
143.09
148.384
153.71
159.07
164.459
169.878
175.323
180.794
186.288
191.803
197.336
202.886
208.448
214.021
219.6
225.184
230.768
236.348
241.921
247.483
253.028
258.554
264.055
269.526
274.964
280.363
285.72
291.031
296.292
301.499
306.651
311.743
316.776
321.744
326.649
331.489
336.263
340.969
345.61
350.182
354.688
359.125
363.495
367.795
372.027
376.188
380.281
384.297
388.224
392.054
395.782
399.4
402.905
406.291
409.56
412.711
415.746
418.651
421.407
424.018
426.452
428.714
430.832
432.886
435.021
437.348
439.399
441.071
442.371
444.157
445.922
446.883
448.042
448.779
448.898
448.795
448.973
448.023
446.881
445.225
443.047
440.373
437.175
433.429
429.117
424.22
418.734
412.653
405.987
398.756
390.986
382.701
373.951
364.79
355.273
345.455
335.387
325.115
314.692
304.198
293.674
283.306
273.477
264.058
254.904
245.957
237.216
228.697
220.416
212.389
204.595
196.992
189.634
182.511
175.579
168.885
162.429
156.227
150.295
144.633
139.234
134.098
129.22
124.595
120.215
116.074
112.162
108.473
104.995
101.731
98.6479
95.7995
93.0808
90.7034
88.4536
87.0225
87.1527
21.7282
11.3345
9.45259
9.06109
9.20496
9.65127
10.3212
11.1928
12.2687
13.5615
15.0834
16.8359
18.7987
21.0175
23.441
26.0153
28.6677
31.3874
34.1981
37.1479
40.3043
43.6228
47.1084
50.7321
54.4657
58.2878
62.2123
66.2491
70.3813
74.6042
78.9149
83.2983
87.7452
92.2436
96.8073
101.436
106.128
110.881
115.694
120.563
125.487
130.463
135.49
140.564
145.685
150.85
156.057
161.305
166.591
171.915
177.274
182.666
188.09
193.543
199.023
204.528
210.054
215.599
221.159
226.732
232.312
237.897
243.481
249.061
254.63
260.185
265.718
271.226
276.702
282.14
287.534
292.879
298.169
303.399
308.562
313.653
318.668
323.6
328.445
333.199
337.858
342.417
346.873
351.223
355.462
359.589
363.599
367.491
371.261
374.911
378.436
381.831
385.091
388.215
391.204
394.058
396.781
399.377
401.85
404.202
406.431
408.532
410.505
412.347
414.068
415.697
417.275
418.833
420.36
421.726
422.894
423.937
425.018
425.965
426.6
426.971
426.979
426.812
426.488
425.973
424.969
423.648
421.916
419.745
417.121
414.016
410.383
406.217
401.504
396.236
390.411
384.035
377.126
369.705
361.804
353.462
344.728
335.649
326.275
316.654
306.84
296.9
286.916
276.961
267.149
257.631
248.4
239.411
230.642
222.095
213.783
205.719
197.914
190.364
183.058
176.01
169.22
162.672
156.372
150.279
144.403
138.767
133.367
128.206
123.285
118.602
114.151
109.93
105.933
102.151
98.5833
95.2199
92.06
89.0876
86.3247
83.7325
81.4113
79.2846
77.6309
77.0656
29.3885
15.0994
12.3366
11.6439
11.6652
12.0797
12.767
13.6832
14.8155
16.1634
17.7288
19.51
21.4998
23.6887
26.0533
28.5648
31.1969
33.9385
36.7941
39.7779
42.9041
46.1697
49.5688
53.0887
56.7187
60.4521
64.2891
68.2288
72.2662
76.3954
80.6115
84.9158
89.3075
93.7865
98.3517
102.998
107.723
112.523
117.397
122.341
127.353
132.432
137.574
142.778
148.041
153.361
158.736
164.165
169.645
175.175
180.752
186.376
192.044
197.754
203.503
209.29
215.111
220.964
226.845
232.75
238.676
244.617
250.57
256.528
262.486
268.437
274.375
280.293
286.184
292.039
297.851
303.612
309.313
314.947
320.504
325.976
331.356
336.634
341.803
346.856
351.785
356.584
361.246
365.765
370.137
374.355
378.416
382.316
386.053
389.626
393.034
396.274
399.345
402.247
404.985
407.562
409.985
412.259
414.391
416.385
418.241
419.96
421.54
422.984
424.296
425.494
426.592
427.613
428.555
429.363
430.005
430.54
431.024
431.254
431.177
430.97
430.574
429.97
429.162
428.11
426.721
425.007
422.922
420.435
417.518
414.147
410.275
405.89
400.975
395.521
389.523
382.987
375.926
368.364
360.328
351.858
342.996
333.788
324.286
314.548
304.641
294.637
284.612
274.641
264.805
255.188
245.809
236.662
227.745
219.066
210.638
202.472
194.577
186.957
179.607
172.535
165.737
159.207
152.942
146.923
141.145
135.597
130.255
125.138
120.245
115.577
111.132
106.906
102.898
99.0967
95.5069
92.1225
88.9399
85.9504
83.1634
80.5659
78.2087
76.0783
74.3016
73.2379
36.9376
18.9442
15.302
14.2949
14.1869
14.5481
15.2247
16.1494
17.2954
18.6519
20.2142
21.9777
23.9349
26.0745
28.3813
30.8379
33.4296
36.1471
38.9883
41.9552
45.0512
48.2757
51.6263
55.0981
58.6871
62.3903
66.2065
70.1344
74.1719
78.3168
82.5675
86.9232
91.3831
95.9462
100.611
105.374
110.234
115.188
120.232
125.365
130.584
135.886
141.268
146.729
152.265
157.875
163.556
169.305
175.122
181.004
186.95
192.957
199.023
205.147
211.325
217.557
223.838
230.165
236.536
242.946
249.391
255.865
262.364
268.88
275.408
281.939
288.465
294.979
301.47
307.93
314.347
320.712
327.014
333.241
339.382
345.425
351.36
357.175
362.858
368.4
373.79
379.018
384.076
388.955
393.648
398.149
402.45
406.549
410.44
414.126
417.604
420.873
423.934
426.789
429.441
431.899
434.167
436.254
438.166
439.907
441.481
442.891
444.137
445.22
446.149
446.931
447.566
448.073
448.499
448.793
448.864
448.722
448.525
448.115
447.529
446.767
445.815
444.659
443.284
441.657
439.736
437.498
434.909
431.938
428.552
424.72
420.411
415.603
410.277
404.42
398.028
391.103
383.658
375.712
367.293
358.438
349.19
339.6
329.728
319.642
309.412
299.11
288.808
278.574
268.475
258.568
248.88
239.425
230.213
221.256
212.567
204.158
196.037
188.208
180.673
173.433
166.487
159.828
153.452
147.347
141.504
135.911
130.556
125.413
120.479
115.756
111.246
106.95
102.868
98.9927
95.3308
91.8757
88.6237
85.5699
82.7182
80.0661
77.6417
75.4536
73.5718
72.1512
44.1374
22.7086
18.2085
16.8811
16.636
16.929
17.5743
18.483
19.6152
20.9523
22.4848
24.2058
26.1084
28.1839
30.4219
32.8116
35.3433
38.0099
40.8079
43.736
46.7942
49.9823
53.2996
56.7445
60.3159
64.0128
67.8348
71.7813
75.8518
80.0457
84.3625
88.8016
93.3624
98.044
102.845
107.763
112.797
117.944
123.201
128.567
134.037
139.61
145.282
151.052
156.916
162.873
168.919
175.052
181.271
187.574
193.959
200.423
206.964
213.582
220.272
227.034
233.863
240.758
247.713
254.725
261.789
268.899
276.049
283.233
290.441
297.666
304.898
312.126
319.34
326.528
333.677
340.775
347.807
354.76
361.619
368.369
374.996
381.486
387.823
393.994
399.987
405.787
411.384
416.766
421.924
426.849
431.534
435.972
440.161
444.097
447.782
451.214
454.393
457.324
460.009
462.456
464.671
466.663
468.437
470.001
471.358
472.512
473.464
474.214
474.77
475.158
475.328
475.277
475.132
474.813
474.284
473.588
472.734
471.691
470.464
469.049
467.436
465.61
463.555
461.246
458.655
455.756
452.519
448.912
444.906
440.467
435.568
430.184
424.295
417.886
410.953
403.494
395.52
387.05
378.111
368.74
358.988
348.911
338.575
328.049
317.403
306.708
296.031
285.436
274.98
264.711
254.66
244.848
235.293
226.009
217.01
208.307
199.909
191.821
184.044
176.579
169.424
162.574
156.023
149.761
143.778
138.063
132.604
127.384
122.383
117.577
112.972
108.574
104.39
100.416
96.6539
93.1013
89.7552
86.6121
83.6738
80.9416
78.4323
76.1597
74.1703
72.4836
50.7886
26.261
20.9447
19.2999
18.9128
19.1279
19.7288
20.6063
21.7091
23.0117
24.5006
26.1678
28.0068
30.0113
32.1748
34.4904
36.9521
39.5549
42.296
45.1736
48.1871
51.3366
54.622
58.0435
61.6013
65.2956
69.1271
73.0962
77.2035
81.4494
85.8342
90.3581
95.021
99.8225
104.762
109.838
115.049
120.392
125.867
131.47
137.2
143.052
149.026
155.117
161.325
167.645
174.077
180.617
187.264
194.015
200.87
207.825
214.88
222.031
229.278
236.616
244.044
251.559
259.155
266.829
274.575
282.387
290.259
298.182
306.148
314.147
322.167
330.196
338.223
346.232
354.209
362.138
370.003
377.786
385.47
393.037
400.469
407.747
414.854
421.773
428.486
434.979
441.235
447.241
452.985
458.455
463.643
468.54
473.141
477.445
481.448
485.15
488.551
491.654
494.465
496.987
499.229
501.198
502.901
504.344
505.535
506.478
507.177
507.618
507.782
507.692
507.389
506.879
506.172
505.253
504.114
502.769
501.224
499.471
497.51
495.338
492.948
490.328
487.466
484.344
480.939
477.23
473.19
468.793
464.009
458.81
453.169
447.061
440.468
433.374
425.771
417.66
409.049
399.958
390.417
380.468
370.163
359.562
348.73
337.735
326.647
315.533
304.457
293.478
282.646
272.007
261.591
251.424
241.528
231.918
222.609
213.611
204.933
196.578
188.55
180.848
173.469
166.41
159.663
153.219
147.069
141.2
135.601
130.259
125.155
120.259
115.548
111.038
106.739
102.653
98.7821
95.1235
91.675
88.4341
85.4013
82.5789
79.9769
77.6082
75.5068
73.6126
56.7291
29.493
23.4231
21.4733
20.9444
21.0776
21.6278
22.4671
23.534
24.7968
26.2389
27.8507
29.6264
31.5612
33.6513
35.8926
38.2819
40.8164
43.4942
46.3144
49.2767
52.3815
55.6295
59.0216
62.5591
66.2431
70.0753
74.057
78.1899
82.4752
86.9143
91.5081
96.2575
101.163
106.224
111.44
116.811
122.336
128.012
133.838
139.812
145.932
152.195
158.599
165.142
171.822
178.636
185.583
192.66
199.866
207.199
214.657
222.239
229.942
237.764
245.704
253.758
261.922
270.193
278.566
287.034
295.593
304.234
312.947
321.725
330.554
339.423
348.319
357.225
366.127
375.006
383.844
392.623
401.32
409.917
418.39
426.718
434.88
442.854
450.619
458.154
465.439
472.457
479.189
485.622
491.74
497.532
502.988
508.101
512.867
517.282
521.345
525.056
528.415
531.428
534.1
536.437
538.446
540.134
541.511
542.583
543.361
543.803
543.913
543.703
543.236
542.494
541.487
540.218
538.689
536.898
534.854
532.561
530.022
527.237
524.205
520.923
517.385
513.581
509.501
505.129
500.45
495.443
490.088
484.358
478.233
471.688
464.701
457.256
449.339
440.944
432.072
422.735
412.955
402.765
392.208
381.334
370.202
358.875
347.421
335.903
324.387
312.931
301.59
290.411
279.433
268.689
258.204
248.004
238.104
228.519
219.258
210.327
201.731
193.472
185.55
177.962
170.704
163.769
157.147
150.829
144.802
139.057
133.578
128.352
123.353
118.535
113.912
109.501
105.305
101.326
97.5624
94.0125
90.6741
87.5468
84.6324
81.9367
79.4694
77.2558
75.1941
61.8403
32.3233
25.5821
23.3498
22.6847
22.7374
23.2355
24.0353
25.0661
26.2909
27.6898
29.2518
30.971
32.8436
34.8671
37.0398
39.3602
41.8272
44.4403
47.1995
50.1054
53.1589
56.3615
59.7148
63.2209
66.882
70.7005
74.6788
78.8196
83.125
87.5975
92.2391
97.0514
102.036
107.194
112.525
118.03
123.709
129.561
135.585
141.78
148.144
154.675
161.372
168.233
175.255
182.438
189.78
197.279
204.933
212.741
220.701
228.812
237.072
245.48
254.031
262.725
271.556
280.522
289.616
298.834
308.167
317.609
327.148
336.775
346.476
356.239
366.047
375.884
385.731
395.568
405.375
415.128
424.805
434.381
443.83
453.127
462.247
471.163
479.851
488.286
496.444
504.304
511.845
519.047
525.895
532.372
538.467
544.17
549.476
554.378
558.875
562.964
566.647
569.927
572.809
575.298
577.4
579.124
580.477
581.472
582.079
582.29
582.126
581.622
580.779
579.601
578.092
576.258
574.102
571.627
568.839
565.745
562.349
558.654
554.664
550.378
545.796
540.915
535.728
530.231
524.414
518.266
511.773
504.919
497.689
490.066
482.035
473.584
464.705
455.398
445.666
435.527
425.006
414.136
402.955
391.512
379.862
368.065
356.182
344.276
332.404
320.62
308.973
297.506
286.253
275.245
264.507
254.067
243.94
234.138
224.67
215.539
206.751
198.305
190.203
182.441
175.016
167.921
161.145
154.678
148.51
142.629
137.022
131.676
126.565
121.643
116.917
112.403
108.107
104.03
100.171
96.5283
93.0994
89.8834
86.8814
84.0962
81.5339
79.2126
77.012
66.0518
34.701
27.3863
24.9036
24.1126
24.0922
24.5376
25.2999
26.2985
27.4911
28.8547
30.3768
32.0506
33.8726
35.841
37.955
40.2146
42.6198
45.1714
47.8704
50.7181
53.7163
56.8674
60.1738
63.6385
67.2647
71.0558
75.0153
79.1467
83.4533
87.9387
92.6059
97.458
102.497
107.726
113.147
118.76
124.567
130.569
136.765
143.156
149.74
156.517
163.487
170.646
177.996
185.533
193.258
201.168
209.263
217.54
226
234.641
243.46
252.456
261.627
270.97
280.48
290.154
299.987
309.972
320.101
330.365
340.754
351.257
361.859
372.545
383.298
394.099
404.927
415.761
426.575
437.345
448.044
458.644
469.116
479.429
489.556
499.465
509.127
518.515
527.599
536.355
544.758
552.784
560.415
567.632
574.419
580.766
586.662
592.102
597.082
601.598
605.651
609.243
612.377
615.058
617.293
619.087
620.45
621.38
621.852
621.885
621.498
620.698
619.49
617.879
615.867
613.46
610.659
607.471
603.899
599.951
595.631
590.948
585.905
580.509
574.76
568.666
562.225
555.442
548.317
540.85
533.036
524.871
516.351
507.47
498.224
488.612
478.635
468.301
457.618
446.607
435.296
423.723
411.914
399.913
387.772
375.545
363.288
351.055
338.897
326.862
314.991
303.321
291.882
280.698
269.794
259.2
248.931
238.994
229.396
220.139
211.226
202.656
194.431
186.549
179.006
171.794
164.904
158.324
152.045
146.054
140.341
134.89
129.678
124.66
119.845
115.246
110.868
106.71
102.772
99.0502
95.5435
92.2499
89.1698
86.3034
83.6542
81.2343
78.9189
69.3323
36.5985
28.8186
26.1223
25.2164
25.1321
25.534
26.2652
27.2385
28.4077
29.7468
31.2414
32.8838
34.6698
36.5979
38.6675
40.8791
43.2336
45.7327
48.378
51.172
54.1173
57.2171
60.4749
63.8949
67.4812
71.2384
75.171
79.2834
83.5801
88.0658
92.7446
97.6209
102.699
107.982
113.474
119.177
125.095
131.229
137.581
144.153
150.944
157.956
165.187
172.637
180.306
188.194
196.298
204.619
213.156
221.907
230.871
240.048
249.436
259.031
268.833
278.838
289.042
299.44
310.026
320.794
331.736
342.841
354.098
365.494
377.014
388.641
400.357
412.14
423.968
435.816
447.656
459.461
471.2
482.842
494.354
505.702
516.853
527.773
538.429
548.787
558.817
568.487
577.77
586.64
595.073
603.048
610.547
617.554
624.061
630.058
635.538
640.498
644.938
648.858
652.261
655.152
657.534
659.414
660.796
661.677
662.052
661.931
661.316
660.219
658.645
656.595
654.071
651.074
647.606
643.671
639.274
634.419
629.113
623.364
617.179
610.567
603.535
596.095
588.256
580.03
571.429
562.463
553.143
543.48
533.484
523.167
512.541
501.617
490.412
478.941
467.218
455.269
443.125
430.806
418.344
405.791
393.191
380.59
368.033
355.563
343.222
331.046
319.07
307.319
295.816
284.579
273.616
262.975
252.668
242.697
233.063
223.77
214.816
206.202
197.925
189.99
182.392
175.122
168.17
161.524
155.176
149.114
143.327
137.799
132.503
127.412
122.534
117.875
113.438
109.223
105.226
101.445
97.8783
94.5227
91.3781
88.4431
85.719
83.2127
80.8046
71.6818
38.0098
29.8806
27.0146
26.0136
25.8765
26.2441
26.9524
27.9097
29.0661
30.3935
31.8757
33.5034
35.2717
37.1784
39.2228
41.4055
43.7276
46.1913
48.799
51.5537
54.4591
57.5195
60.7395
64.1243
67.6796
71.4122
75.3261
79.4266
83.7188
88.2087
92.9019
97.8042
102.921
108.259
113.822
119.616
125.646
131.914
138.427
145.186
152.192
159.447
166.951
174.706
182.711
190.966
199.47
208.222
217.223
226.471
235.964
245.703
255.684
265.905
276.363
287.056
297.977
309.122
320.484
332.056
343.828
355.789
367.927
380.228
392.675
405.249
417.93
430.695
443.519
456.374
469.232
482.06
494.825
507.493
520.027
532.39
544.544
556.451
568.075
579.378
590.325
600.883
611.02
620.706
629.914
638.621
646.805
654.449
661.54
668.069
674.026
679.409
684.214
688.443
692.098
695.18
697.695
699.646
701.039
701.871
702.14
701.851
700.985
699.572
697.611
695.098
692.034
688.415
684.242
679.515
674.239
668.415
662.052
655.154
647.733
639.798
631.365
622.447
613.065
603.239
592.995
582.355
571.35
560.009
548.363
536.442
524.285
511.908
499.325
486.519
473.589
460.577
447.532
434.512
421.515
408.528
395.587
382.727
369.982
357.387
344.971
332.763
320.787
309.062
297.603
286.419
275.514
264.962
254.75
244.872
235.326
226.11
217.224
208.665
200.422
192.514
184.935
177.676
170.726
164.072
157.707
151.62
145.8
140.23
134.883
129.756
124.848
120.162
115.697
111.452
107.422
103.606
100
96.6021
93.4104
90.4228
87.6389
85.0616
82.5823
73.1295
38.9461
30.5883
27.6023
26.5316
26.3564
26.702
27.3991
28.3529
29.5112
30.8437
32.3327
33.9676
35.7424
37.6538
39.7006
41.8831
44.2024
46.6608
49.261
52.0069
54.9029
57.9545
61.1681
64.5491
68.1029
71.8361
75.7554
79.8678
84.1808
88.7018
93.4382
98.3976
103.588
109.016
114.69
120.616
126.8
133.248
139.964
146.952
154.217
161.762
169.589
177.7
186.093
194.77
203.729
212.97
222.491
232.292
242.372
252.727
263.355
274.253
285.417
296.842
308.523
320.452
332.623
345.026
357.649
370.482
383.51
396.717
410.085
423.594
437.221
450.942
464.729
478.554
492.383
506.183
519.917
533.548
547.037
560.341
573.422
586.237
598.746
610.91
622.689
634.047
644.949
655.363
665.26
674.612
683.397
691.594
699.191
706.172
712.532
718.263
723.364
727.833
731.674
734.888
737.478
739.447
740.8
741.543
741.655
741.14
739.975
738.197
735.798
732.77
729.109
724.808
719.866
714.278
708.046
701.17
693.657
685.512
676.746
667.372
657.408
646.876
635.805
624.228
612.182
599.708
586.849
573.674
560.221
546.494
532.523
518.441
504.328
490.333
476.369
462.468
448.678
435.082
421.533
408.122
394.878
381.824
368.981
356.367
343.999
331.892
320.056
308.5
297.23
286.245
275.518
265.149
255.114
245.406
236.022
226.96
218.217
209.789
201.665
193.878
186.411
179.247
172.375
165.784
159.466
153.405
147.6
142.029
136.688
131.571
126.675
122
117.542
113.3
109.268
105.443
101.823
98.4054
95.1873
92.166
89.3404
86.7098
84.1808
73.7024
39.4244
30.9661
27.9175
26.8095
26.6172
26.9596
27.6641
28.6344
29.817
31.1804
32.7054
34.3803
36.1979
38.1539
40.2464
42.475
44.8405
47.3451
49.9919
52.7854
55.7309
58.8331
62.097
65.53
69.1398
72.9345
76.9224
81.1128
85.5149
90.1383
94.9925
100.088
105.433
111.038
116.912
123.063
129.499
136.226
143.251
150.578
158.213
166.158
174.419
182.996
191.889
201.099
210.624
220.463
230.613
241.074
251.841
262.91
274.279
285.94
297.89
310.12
322.623
335.391
348.413
361.679
375.175
388.887
402.801
416.898
431.158
445.559
460.078
474.688
489.361
504.063
518.763
533.423
548.005
562.469
576.773
590.874
604.729
618.294
631.526
644.384
656.827
668.816
680.315
691.289
701.708
711.542
720.767
729.363
737.31
744.598
751.215
757.155
762.416
766.998
770.901
774.127
776.677
778.556
779.768
780.31
780.177
779.333
777.78
775.545
772.612
768.974
764.618
759.536
753.72
747.166
739.868
731.828
723.045
713.53
703.291
692.344
680.711
668.423
655.513
642.038
628.046
613.592
598.673
583.355
567.79
552.151
536.586
521.063
505.725
490.398
475.244
460.324
445.682
431.348
417.304
403.563
390.133
377.019
364.222
351.744
339.585
327.742
316.213
304.994
294.081
283.465
273.142
263.134
253.439
244.055
234.977
226.201
217.725
209.542
201.628
194.032
186.733
179.719
172.981
166.505
160.286
154.307
148.573
143.076
137.807
132.759
127.923
123.301
118.89
114.687
110.685
106.882
103.276
99.8633
96.6421
93.6086
90.7617
88.0973
85.5406
73.5636
39.5091
31.0729
28.0237
26.9146
26.7348
27.1049
27.8503
28.8746
30.1238
31.5658
33.1804
34.9545
36.8802
38.9525
41.1685
43.5273
46.0293
48.6761
51.4704
54.416
57.5173
60.7808
64.2131
67.8224
71.6177
75.6086
79.8056
84.2198
88.8627
93.7459
98.8811
104.28
109.956
115.918
122.178
128.745
135.628
142.837
150.376
158.253
166.471
175.034
183.942
193.2
202.807
212.761
223.061
233.701
244.679
255.989
267.625
279.582
291.851
304.425
317.293
330.446
343.872
357.56
371.496
385.667
400.057
414.649
429.427
444.37
459.457
474.665
489.969
505.342
520.753
536.17
551.559
566.883
582.101
597.173
612.056
626.706
641.078
655.129
668.815
682.094
694.925
707.27
719.09
730.351
741.022
751.073
760.48
769.218
777.27
784.622
791.263
797.185
802.386
806.864
810.623
813.66
815.978
817.581
818.479
818.637
818.085
816.729
814.626
811.765
808.13
803.708
798.484
792.444
785.578
777.874
769.328
759.934
749.695
738.616
726.709
713.992
700.497
686.26
671.314
655.644
639.333
622.524
605.446
588.213
570.85
553.56
536.169
518.906
501.892
485.176
468.843
452.952
437.545
422.64
408.23
394.306
380.852
367.852
355.286
343.133
331.373
319.987
308.956
298.262
287.886
277.816
268.039
258.556
249.364
240.457
231.83
223.48
215.401
207.589
200.037
192.752
185.732
178.968
172.451
166.171
160.119
154.285
148.691
143.324
138.177
133.242
128.508
123.988
119.669
115.545
111.612
107.864
104.3
100.92
97.7209
94.6983
91.8519
89.1743
86.6117
72.9351
39.3428
31.0031
28.01
26.9592
26.8523
27.3135
28.1681
29.3213
30.7196
32.3309
34.135
36.1191
38.2745
40.5958
43.0794
45.724
48.5295
51.497
54.6291
57.9296
61.4033
65.0568
68.8977
72.9347
77.1777
81.6377
86.3264
91.2563
96.4403
101.892
107.624
113.652
119.988
126.646
133.636
140.968
148.651
156.694
165.105
173.886
183.04
192.568
202.47
212.74
223.378
234.379
245.739
257.45
269.504
281.893
294.605
307.629
320.954
334.565
348.449
362.589
376.97
391.576
406.391
421.396
436.575
451.908
467.377
482.96
498.637
514.383
530.176
545.986
561.788
577.548
593.234
608.81
624.239
639.479
654.49
669.228
683.653
697.721
711.392
724.624
737.379
749.62
761.311
772.42
782.914
792.766
801.95
810.444
818.228
825.286
831.606
837.18
842.004
846.077
849.401
851.974
853.794
854.863
855.184
854.771
853.528
851.466
848.594
844.893
840.346
834.931
828.632
821.428
813.306
804.251
794.256
783.312
771.42
758.587
744.831
730.157
714.541
698.031
680.737
662.855
644.489
625.687
606.674
587.303
567.829
548.416
529.159
510.202
491.68
473.689
456.317
439.625
423.646
408.387
393.832
379.948
366.699
354.04
341.929
330.323
319.18
308.462
298.131
288.156
278.507
269.157
260.091
251.295
242.762
234.483
226.451
218.659
211.104
203.784
196.69
189.823
183.186
176.764
170.556
164.562
158.78
153.206
147.843
142.687
137.734
132.975
128.402
124.022
119.829
115.817
111.982
108.319
104.833
101.517
98.3681
95.3835
92.5628
89.8957
87.3508
71.5843
38.8361
30.7674
27.9515
27.0597
27.1087
27.7532
28.8198
30.2179
31.8961
33.8236
35.981
38.3558
40.9398
43.7273
46.7151
49.9013
53.2855
56.8682
60.6518
64.6399
68.8371
73.2493
77.8835
82.7481
87.8527
93.2078
98.825
104.717
110.895
117.375
124.168
131.291
138.759
146.585
154.775
163.335
172.27
181.582
191.273
201.348
211.805
222.644
233.86
245.446
257.393
269.693
282.332
295.299
308.579
322.157
336.018
350.143
364.516
379.117
393.926
408.923
424.088
439.4
454.841
470.39
486.031
501.742
517.505
533.303
549.113
564.917
580.692
596.417
612.065
627.61
643.024
658.274
673.327
688.147
702.696
716.937
730.832
744.342
757.432
770.064
782.203
793.816
804.87
815.335
825.183
834.386
842.919
850.761
857.891
864.289
869.943
874.841