/*--------------------------------*- C++ -*----------------------------------*\
| =========                 |                                                 |
| \\      /  F ield         | OpenFOAM: The Open Source CFD Toolbox           |
|  \\    /   O peration     | Version:  5.0                                   |
|   \\  /    A nd           | Web:      www.OpenFOAM.org                      |
|    \\/     M anipulation  |                                                 |
\*---------------------------------------------------------------------------*/
FoamFile
{
    version     2.0;
    format      ascii;
    class       volScalarField;
    location    "100";
    object      k;
}
// * * * * * * * * * * * * * * * * * * * * * * * * * * * * * * * * * * * * * //

dimensions      [0 2 -2 0 0 0 0];

internalField   nonuniform List<scalar> 
12225
(
0.362814
0.344001
0.327732
0.309838
0.295373
0.283524
0.275462
0.270313
0.270358
0.271935
0.276091
0.28083
0.290007
0.295965
0.307107
0.31329
0.326947
0.324021
0.440192
0.468696
0.461605
0.448377
0.450365
0.45834
0.474462
0.498846
0.524371
0.552605
0.580943
0.606925
0.634508
0.655108
0.681387
0.695248
0.723946
0.728361
0.390545
0.417868
0.42023
0.416824
0.411632
0.407808
0.408017
0.410058
0.414545
0.421523
0.43082
0.439911
0.451495
0.461562
0.473568
0.484622
0.495289
0.509471
0.377546
0.38698
0.391407
0.391342
0.390222
0.387897
0.385663
0.384085
0.382885
0.38291
0.383383
0.38443
0.386378
0.388583
0.391147
0.394624
0.397192
0.402222
0.374562
0.376089
0.378413
0.378665
0.378263
0.377204
0.375489
0.373736
0.372011
0.370453
0.369261
0.368117
0.367399
0.366853
0.366491
0.366492
0.36657
0.367095
0.373815
0.372709
0.372645
0.372383
0.371761
0.370814
0.369553
0.368079
0.366569
0.364972
0.363523
0.36206
0.360748
0.359537
0.358399
0.357461
0.356494
0.355903
0.373783
0.371742
0.370386
0.369286
0.368234
0.367112
0.365913
0.364583
0.363234
0.361802
0.360414
0.359015
0.357665
0.356372
0.355106
0.353959
0.352792
0.351824
0.37382
0.37156
0.369635
0.367976
0.3665
0.365106
0.363774
0.362426
0.361103
0.35976
0.358441
0.357133
0.355849
0.354606
0.353381
0.35223
0.35108
0.350042
0.373832
0.371553
0.369449
0.367525
0.365776
0.364152
0.362643
0.361196
0.359813
0.358467
0.357161
0.355892
0.354653
0.353458
0.352288
0.351174
0.350076
0.349055
0.373831
0.37156
0.369418
0.367405
0.365529
0.363772
0.362131
0.360583
0.359118
0.357722
0.356387
0.355108
0.353876
0.352695
0.351552
0.350463
0.349401
0.348404
0.373829
0.371561
0.369413
0.367378
0.365458
0.363645
0.361936
0.360322
0.358795
0.357348
0.355973
0.354664
0.353415
0.352224
0.351081
0.349994
0.348945
0.347957
0.373828
0.371559
0.369409
0.367371
0.365439
0.363608
0.361875
0.360232
0.358675
0.357198
0.355795
0.354462
0.353193
0.351986
0.350833
0.349737
0.348686
0.347693
0.373827
0.371557
0.369405
0.367365
0.36543
0.363593
0.36185
0.360196
0.358624
0.357132
0.355712
0.354364
0.35308
0.351859
0.350694
0.349588
0.34853
0.347528
0.373827
0.371555
0.369402
0.36736
0.365423
0.363583
0.361837
0.360177
0.3586
0.3571
0.355673
0.354315
0.353022
0.351792
0.35062
0.349504
0.348439
0.347428
0.373826
0.371553
0.369399
0.367355
0.365416
0.363575
0.361826
0.360165
0.358584
0.357081
0.355651
0.354289
0.352993
0.351758
0.350581
0.34946
0.348391
0.347373
0.373826
0.371552
0.369396
0.367351
0.36541
0.363568
0.361818
0.360154
0.358572
0.357068
0.355635
0.354272
0.352973
0.351737
0.350557
0.349434
0.348362
0.347341
0.373825
0.371551
0.369394
0.367348
0.365406
0.363562
0.361811
0.360146
0.358563
0.357057
0.355623
0.354258
0.352959
0.35172
0.35054
0.349414
0.348341
0.347317
0.373825
0.371551
0.369393
0.367346
0.365404
0.363559
0.361806
0.36014
0.358556
0.357049
0.355614
0.354248
0.352947
0.351707
0.350526
0.349399
0.348324
0.347299
0.373825
0.37155
0.369393
0.367346
0.365403
0.363557
0.361804
0.360138
0.358553
0.357045
0.35561
0.354243
0.352942
0.351701
0.350519
0.349391
0.348316
0.347289
0.373825
0.371551
0.369394
0.367346
0.365404
0.363559
0.361807
0.36014
0.358556
0.357048
0.355614
0.354247
0.352946
0.351704
0.350523
0.349394
0.348319
0.347293
0.373825
0.371552
0.369395
0.367349
0.365407
0.363564
0.361811
0.360147
0.358563
0.357057
0.355623
0.354259
0.352958
0.35172
0.350539
0.349413
0.34834
0.347316
0.373826
0.371553
0.369397
0.367352
0.365413
0.363571
0.361823
0.360162
0.358585
0.357085
0.355659
0.354301
0.35301
0.351779
0.350607
0.349489
0.348424
0.347406
0.373826
0.371554
0.369399
0.36736
0.365429
0.363603
0.361876
0.360241
0.358692
0.357222
0.355826
0.354496
0.353231
0.352023
0.350871
0.349768
0.348718
0.347708
0.373828
0.371551
0.369412
0.367417
0.365556
0.36382
0.36219
0.360652
0.359191
0.357796
0.356459
0.355175
0.35394
0.35275
0.351606
0.350501
0.349443
0.348418
0.373823
0.371554
0.369605
0.367893
0.36634
0.364893
0.363496
0.362123
0.360763
0.359416
0.358083
0.356773
0.355492
0.354242
0.353034
0.351861
0.35074
0.349653
0.373788
0.371991
0.371113
0.370266
0.369361
0.368312
0.367049
0.365631
0.364122
0.362577
0.361032
0.359525
0.358076
0.356685
0.355385
0.354145
0.353014
0.351928
0.374355
0.375572
0.377776
0.377858
0.377288
0.375886
0.373836
0.371642
0.369506
0.367483
0.365664
0.364083
0.36271
0.361533
0.360608
0.359814
0.359285
0.358793
0.379125
0.394297
0.39825
0.396574
0.392539
0.387604
0.383646
0.380448
0.378266
0.376849
0.37649
0.376732
0.377403
0.378672
0.380416
0.38239
0.384785
0.387086
0.408394
0.42754
0.422415
0.411054
0.402225
0.397919
0.398619
0.400952
0.406049
0.413026
0.420956
0.429772
0.438762
0.4481
0.457194
0.466417
0.47516
0.483994
0.36605
0.353415
0.341989
0.330209
0.318983
0.30838
0.299412
0.29167
0.285403
0.28033
0.276677
0.273857
0.272298
0.271154
0.271183
0.271437
0.272144
0.273325
0.012122
0.0350511
0.0524021
0.0677445
0.0816591
0.0944541
0.106328
0.117076
0.126336
0.133534
0.13795
0.138726
0.133304
0.126768
0.11628
0.0882333
0.0905185
0.099029
0.110382
0.120856
0.139658
0.151337
0.168231
0.182236
0.197485
0.213583
0.230567
0.248241
0.266569
0.285354
0.304563
0.324011
0.343685
0.363417
0.383211
0.402923
0.422582
0.442066
0.461422
0.480546
0.499501
0.518196
0.536705
0.554949
0.573006
0.590802
0.608413
0.625772
0.642951
0.659888
0.676652
0.693184
0.709544
0.725678
0.741638
0.757372
0.772927
0.788256
0.803396
0.818307
0.833015
0.847491
0.861748
0.875768
0.889552
0.903096
0.916387
0.929434
0.942212
0.954742
0.966988
0.978993
0.990707
1.0022
1.01341
1.02442
1.03516
1.04574
1.05608
1.06631
1.07633
1.0863
1.09609
1.1059
1.11557
1.1253
1.13495
1.14472
1.15449
1.16443
1.17448
1.18462
1.19484
1.20512
1.21544
1.22576
1.23606
1.24628
1.25644
1.26649
1.27643
1.28596
1.29524
1.30363
1.31042
1.31447
1.31179
1.31955
1.33843
1.3383
1.35601
1.35429
1.36075
1.35915
1.36311
1.37409
1.37027
1.37659
1.3709
1.3725
1.37661
1.3714
1.36763
1.3609
1.35328
1.34416
1.33367
1.32182
1.3085
1.2937
1.27742
1.25975
1.2407
1.22038
1.19883
1.17585
1.1518
1.12675
1.10084
1.07425
1.04707
1.0193
0.99142
0.963863
0.935246
0.909385
0.890249
0.872402
0.854668
0.836957
0.819347
0.801878
0.784654
0.767626
0.750621
0.733791
0.71759
0.701816
0.686224
0.670938
0.656081
0.641755
0.627969
0.614669
0.601866
0.589577
0.577796
0.566504
0.555702
0.545365
0.535482
0.525997
0.516936
0.508063
0.499772
0.490839
0.483475
0.47258
0.465432
0.438264
0.027347
0.0634142
0.0877148
0.106246
0.122082
0.136267
0.149209
0.161136
0.172093
0.182003
0.190863
0.199117
0.20848
0.217491
0.225758
0.234008
0.247605
0.264757
0.284482
0.306807
0.332652
0.360118
0.387577
0.414595
0.442697
0.47206
0.502625
0.534271
0.566871
0.600274
0.634369
0.669018
0.704114
0.739525
0.77516
0.810908
0.846705
0.88246
0.918132
0.953653
0.989
1.02413
1.05903
1.09367
1.12805
1.16216
1.19601
1.22957
1.26285
1.29585
1.32857
1.361
1.39315
1.425
1.45656
1.48781
1.51874
1.54934
1.57959
1.60948
1.639
1.66811
1.69682
1.72508
1.75288
1.7802
1.80703
1.83334
1.85911
1.88435
1.90903
1.9331
1.95653
1.97934
2.00151
2.02306
2.04396
2.06426
2.08395
2.10307
2.12164
2.1397
2.15728
2.17444
2.1912
2.20763
2.22375
2.23966
2.2554
2.2711
2.28678
2.30247
2.31818
2.33393
2.34975
2.36564
2.38162
2.39768
2.41381
2.43002
2.44635
2.46266
2.4789
2.49482
2.5103
2.52508
2.53925
2.55421
2.56921
2.58241
2.59696
2.60941
2.62147
2.6322
2.64391
2.6544
2.66244
2.67059
2.6765
2.6786
2.68599
2.6856
2.68782
2.68516
2.68041
2.67318
2.66341
2.65102
2.63603
2.61797
2.59681
2.57256
2.54526
2.51497
2.48179
2.44582
2.40732
2.36651
2.32361
2.27887
2.23253
2.18481
2.1359
2.08637
2.03636
1.98569
1.93536
1.88513
1.83508
1.78545
1.73647
1.68831
1.6411
1.59469
1.54861
1.50358
1.45992
1.41776
1.37683
1.33702
1.29856
1.2616
1.22611
1.19195
1.15914
1.12773
1.09766
1.06889
1.04142
1.01518
0.99013
0.966206
0.943356
0.92145
0.900588
0.880157
0.861562
0.840738
0.826162
0.785342
0.0493431
0.0969015
0.12612
0.148151
0.166971
0.184023
0.200025
0.215429
0.230578
0.245791
0.261461
0.278092
0.296127
0.315199
0.335318
0.356835
0.380392
0.405857
0.433093
0.462159
0.493179
0.525924
0.560262
0.595789
0.632528
0.670522
0.709718
0.749988
0.791202
0.833235
0.875971
0.919284
0.96306
1.00718
1.05154
1.09605
1.14061
1.18518
1.22967
1.27406
1.31829
1.36234
1.40619
1.44981
1.49319
1.53632
1.5792
1.62181
1.66415
1.70622
1.74802
1.78954
1.83077
1.87171
1.91235
1.95267
1.99267
2.03233
2.07163
2.11054
2.14906
2.18716
2.22481
2.26197
2.29863
2.33475
2.37031
2.40527
2.43959
2.47327
2.50625
2.53852
2.57003
2.60079
2.63075
2.65992
2.68828
2.71582
2.74255
2.76847
2.79359
2.81793
2.8415
2.86434
2.88646
2.90792
2.92873
2.94895
2.96862
2.98783
3.00661
3.02499
3.04297
3.06058
3.07786
3.09482
3.1115
3.12791
3.14409
3.16009
3.17591
3.19153
3.20693
3.22206
3.23689
3.25137
3.26562
3.27974
3.29356
3.30694
3.32018
3.33298
3.34475
3.35624
3.36714
3.37691
3.38554
3.39302
3.39923
3.40233
3.40449
3.40393
3.40242
3.39778
3.39033
3.37984
3.36614
3.34904
3.32842
3.30407
3.27593
3.24399
3.20828
3.16887
3.12591
3.07957
3.03009
2.97772
2.92275
2.86544
2.80607
2.74492
2.68226
2.61866
2.55477
2.49078
2.427
2.36343
2.30024
2.23766
2.17592
2.11524
2.05575
1.9975
1.94047
1.88489
1.83091
1.77865
1.72785
1.67817
1.63012
1.58387
1.53938
1.4964
1.45507
1.41544
1.37743
1.34102
1.30619
1.27288
1.24106
1.21064
1.18159
1.15379
1.1273
1.10178
1.07804
1.05382
1.03616
1.0032
0.0742495
0.131929
0.16636
0.192322
0.214489
0.234658
0.253783
0.27249
0.291267
0.310536
0.330687
0.352076
0.374952
0.399337
0.425236
0.452686
0.481743
0.512403
0.544699
0.578737
0.61463
0.652391
0.69191
0.732969
0.775436
0.819213
0.864195
0.91027
0.957341
1.00529
1.054
1.10335
1.15324
1.20353
1.25415
1.30498
1.35597
1.40703
1.45812
1.50918
1.56018
1.61106
1.66182
1.71242
1.76284
1.81307
1.8631
1.91292
1.96251
2.01187
2.061
2.10988
2.1585
2.20687
2.25496
2.30276
2.35026
2.39744
2.44428
2.49076
2.53684
2.58251
2.62772
2.67245
2.71666
2.76031
2.80335
2.84576
2.88748
2.92847
2.96869
3.0081
3.04666
3.08433
3.12108
3.15687
3.19167
3.22547
3.25823
3.28996
3.32063
3.35025
3.37882
3.40635
3.43285
3.45834
3.48285
3.5064
3.52904
3.55082
3.57178
3.59196
3.61136
3.63003
3.64801
3.66533
3.68204
3.69818
3.71381
3.72898
3.74371
3.75801
3.77191
3.78539
3.79845
3.81111
3.82339
3.8353
3.84684
3.85801
3.8688
3.87912
3.8886
3.89755
3.90574
3.9129
3.9189
3.92344
3.9258
3.92606
3.92513
3.92206
3.91679
3.90864
3.89743
3.88291
3.86486
3.84305
3.81733
3.78751
3.75351
3.71531
3.67294
3.62646
3.57604
3.52186
3.46417
3.40323
3.33935
3.27281
3.20397
3.13322
3.06106
2.988
2.91462
2.84123
2.76806
2.69526
2.62301
2.55156
2.48114
2.41195
2.34417
2.2779
2.21321
2.15023
2.08906
2.0298
1.97237
1.91667
1.86282
1.81094
1.76098
1.71243
1.66568
1.62081
1.57769
1.53629
1.49664
1.45868
1.42235
1.38761
1.35441
1.32268
1.29243
1.26353
1.23644
1.21006
1.18917
1.15954
0.100258
0.166775
0.206803
0.236964
0.26262
0.285898
0.307943
0.329503
0.351147
0.373338
0.396471
0.420872
0.446777
0.474314
0.503534
0.534444
0.567045
0.601344
0.637384
0.675228
0.714933
0.756494
0.799835
0.844826
0.891345
0.939277
0.988513
1.03895
1.09046
1.14295
1.19629
1.25037
1.30509
1.36032
1.416
1.47202
1.52833
1.58484
1.6415
1.69826
1.75506
1.81188
1.86866
1.92539
1.98203
2.03857
2.09499
2.15127
2.2074
2.26337
2.31916
2.37477
2.43019
2.4854
2.54038
2.59513
2.64963
2.70385
2.75778
2.81138
2.86462
2.91748
2.9699
3.02186
3.07331
3.1242
3.17447
3.22407
3.27296
3.32107
3.36834
3.41472
3.46015
3.50458
3.54794
3.59018
3.63126
3.67113
3.70975
3.74709
3.78312
3.81781
3.85115
3.88312
3.91374
3.94299
3.9709
3.99748
4.02276
4.04678
4.06959
4.09121
4.11168
4.13104
4.14933
4.16661
4.18293
4.19836
4.21294
4.22675
4.23981
4.25218
4.26385
4.27488
4.28528
4.29509
4.30429
4.31292
4.321
4.32859
4.33568
4.34219
4.34781
4.3526
4.3567
4.35981
4.36118
4.3609
4.35924
4.35595
4.35092
4.34375
4.33414
4.32171
4.30616
4.28721
4.26461
4.23811
4.20751
4.17265
4.1334
4.08973
4.04164
3.9892
3.93257
3.87192
3.8075
3.73959
3.66849
3.5946
3.51835
3.44023
3.36074
3.28041
3.19972
3.11903
3.03862
2.95868
2.87944
2.80114
2.72402
2.64828
2.57411
2.50164
2.43097
2.36222
2.29547
2.23078
2.16815
2.10752
2.04894
1.99247
1.93807
1.88558
1.83505
1.78653
1.73976
1.69473
1.65156
1.61014
1.57045
1.53245
1.49611
1.46138
1.42828
1.39678
1.36717
1.33902
1.31541
1.28513
0.12589
0.200442
0.245954
0.280298
0.30939
0.335645
0.360361
0.384385
0.408347
0.43275
0.458014
0.48448
0.512411
0.541985
0.573308
0.606432
0.641382
0.678176
0.716839
0.757395
0.799855
0.844197
0.89036
0.938252
0.98777
1.03881
1.09126
1.14501
1.19995
1.25599
1.313
1.37088
1.42953
1.48886
1.54878
1.60922
1.67008
1.73131
1.79284
1.85461
1.91657
1.97868
2.04088
2.10316
2.16547
2.22779
2.29009
2.35236
2.41458
2.47672
2.53878
2.60075
2.6626
2.72433
2.78592
2.84735
2.9086
2.96965
3.03047
3.09103
3.15129
3.21122
3.27078
3.3299
3.38855
3.44666
3.50417
3.56101
3.61711
3.6724
3.72681
3.78026
3.83267
3.88396
3.93406
3.9829
4.03039
4.07648
4.12109
4.16417
4.20567
4.24554
4.28375
4.32027
4.35507
4.38815
4.4195
4.44913
4.47704
4.5033
4.52792
4.55095
4.5724
4.59233
4.6108
4.62786
4.64357
4.65801
4.67123
4.68331
4.69428
4.70421
4.71311
4.72105
4.72808
4.73427
4.73956
4.74397
4.74763
4.75059
4.75289
4.7546
4.75512
4.75437
4.7529
4.75039
4.74646
4.74119
4.73446
4.72612
4.71596
4.70369
4.689
4.67158
4.6511
4.62728
4.59984
4.56851
4.53306
4.49331
4.44913
4.40043
4.34721
4.28953
4.2275
4.1613
4.09117
4.01741
3.94042
3.86062
3.77849
3.69454
3.60928
3.52319
3.43674
3.35031
3.26418
3.1786
3.09383
3.01011
2.92768
2.84674
2.76749
2.69007
2.61461
2.54122
2.46996
2.4009
2.33405
2.26939
2.20694
2.1467
2.08865
2.03273
1.97892
1.92725
1.87758
1.82987
1.78412
1.74009
1.69783
1.65731
1.61851
1.58142
1.54606
1.51248
1.48087
1.45114
1.42525
1.39463
0.150328
0.231892
0.282512
0.320827
0.353185
0.382236
0.409402
0.435608
0.461533
0.487718
0.514615
0.542592
0.571947
0.602902
0.635616
0.670188
0.706678
0.745122
0.785539
0.827935
0.8723
0.918601
0.966781
1.01676
1.06846
1.12177
1.1766
1.23285
1.29042
1.3492
1.40909
1.47001
1.53186
1.59455
1.658
1.72213
1.78686
1.85213
1.91787
1.98402
2.05052
2.11732
2.18438
2.25165
2.3191
2.38669
2.45441
2.52221
2.59008
2.65801
2.72597
2.79394
2.86192
2.92988
2.99781
3.06569
3.13349
3.20119
3.26876
3.33616
3.40336
3.47031
3.53696
3.60325
3.66913
3.73451
3.79933
3.86351
3.92696
3.98959
4.05131
4.11202
4.17163
4.23003
4.28711
4.34279
4.39697
4.44955
4.50043
4.54954
4.5968
4.64214
4.6855
4.72682
4.76608
4.80322
4.83825
4.87114
4.9019
4.93057
4.95716
4.9817
5.00424
5.02481
5.04348
5.0603
5.07534
5.08868
5.10038
5.11051
5.11913
5.12632
5.13206
5.13645
5.13959
5.14167
5.1424
5.14182
5.1403
5.1378
5.13436
5.12994
5.12432
5.1176
5.10983
5.10092
5.09074
5.07923
5.0663
5.05179
5.03551
5.01722
4.99664
4.97348
4.94743
4.9182
4.88551
4.84906
4.80862
4.76398
4.71497
4.6615
4.60352
4.54106
4.47422
4.40319
4.32822
4.24966
4.16791
4.08342
3.99668
3.90817
3.8184
3.72783
3.63692
3.54601
3.45544
3.36548
3.2764
3.18844
3.10184
3.01682
2.93357
2.85223
2.77296
2.69585
2.62098
2.5484
2.47814
2.41019
2.34456
2.28125
2.22022
2.16144
2.10487
2.05052
1.99833
1.94825
1.90022
1.85413
1.80992
1.7675
1.72679
1.68785
1.6507
1.61542
1.58218
1.55103
1.52321
1.49209
0.172886
0.260352
0.315522
0.357447
0.392811
0.424443
0.453859
0.482041
0.509707
0.537427
0.565678
0.594856
0.62529
0.657242
0.690909
0.726433
0.763908
0.80339
0.844907
0.888464
0.934046
0.981615
1.03112
1.0825
1.13566
1.19053
1.24702
1.30503
1.36448
1.42528
1.48734
1.55057
1.61489
1.68022
1.74648
1.8136
1.8815
1.95012
2.01939
2.08925
2.15964
2.2305
2.3018
2.37347
2.44549
2.51781
2.5904
2.66324
2.7363
2.80956
2.88299
2.95659
3.03033
3.10419
3.17816
3.25221
3.32632
3.40045
3.47459
3.54869
3.6227
3.69658
3.77027
3.84371
3.91681
3.98951
4.06171
4.13333
4.20425
4.27438
4.3436
4.41178
4.47882
4.54458
4.60894
4.67178
4.73295
4.79236
4.84986
4.90536
4.95875
5.00992
5.0588
5.10531
5.14938
5.19095
5.23
5.26649
5.30042
5.3318
5.36064
5.38697
5.41081
5.43222
5.45125
5.46796
5.48242
5.49471
5.50489
5.51303
5.5192
5.52356
5.52594
5.5265
5.52534
5.52269
5.5184
5.5126
5.50539
5.49685
5.48702
5.47592
5.46351
5.44983
5.43493
5.41879
5.40135
5.38258
5.3624
5.3407
5.31733
5.29208
5.26473
5.23501
5.20265
5.16736
5.12887
5.08688
5.04114
4.99142
4.93753
4.87935
4.81681
4.74993
4.6788
4.60362
4.52465
4.44222
4.35675
4.26866
4.17842
4.0865
3.99338
3.89951
3.80529
3.71111
3.61727
3.52407
3.43179
3.34069
3.25099
3.16291
3.07664
2.99234
2.91015
2.83018
2.75251
2.67719
2.60426
2.53371
2.46555
2.39977
2.33636
2.27526
2.21645
2.1599
2.10561
2.0535
2.00354
1.95562
1.90969
1.86568
1.82353
1.78317
1.74463
1.70799
1.6734
1.64099
1.61154
1.57978
0.193025
0.285266
0.344331
0.389419
0.427466
0.461433
0.492901
0.522893
0.552152
0.581266
0.610725
0.640945
0.672278
0.70501
0.73937
0.775531
0.813614
0.853697
0.895826
0.940013
0.986249
1.0345
1.08473
1.13688
1.19087
1.24664
1.30412
1.36321
1.42385
1.48597
1.54947
1.6143
1.68037
1.74761
1.81595
1.88533
1.95567
2.02692
2.099
2.17186
2.24544
2.31968
2.39454
2.46996
2.54591
2.62235
2.69924
2.77655
2.85425
2.93232
3.01075
3.0895
3.16857
3.24793
3.32756
3.40744
3.48755
3.56785
3.64831
3.72888
3.80953
3.89019
3.9708
4.05129
4.13158
4.21157
4.29118
4.37028
4.44877
4.52651
4.60337
4.67922
4.75391
4.82728
4.89918
4.96946
5.03796
5.10453
5.16902
5.23128
5.29119
5.3486
5.40341
5.45551
5.50481
5.55123
5.59471
5.63521
5.67269
5.70716
5.73861
5.76707
5.79255
5.81509
5.83474
5.85158
5.86566
5.87707
5.88587
5.89216
5.89586
5.89719
5.89616
5.8929
5.88749
5.88002
5.87053
5.85912
5.84587
5.83088
5.81422
5.79596
5.77613
5.7548
5.73203
5.70785
5.68228
5.65533
5.62694
5.59708
5.56562
5.53246
5.49739
5.46022
5.4207
5.37859
5.33361
5.28551
5.23401
5.17887
5.1199
5.05697
4.98999
4.91898
4.84404
4.76533
4.68311
4.59768
4.50942
4.41873
4.32604
4.2318
4.13644
4.04038
3.94401
3.84768
3.7517
3.65639
3.56201
3.46883
3.37708
3.28695
3.19862
3.11228
3.02805
2.94606
2.86639
2.78909
2.7142
2.64172
2.57166
2.50403
2.43878
2.3759
2.31535
2.25708
2.20111
2.14737
2.09582
2.04638
1.99901
1.95363
1.9102
1.86869
1.8291
1.7914
1.75571
1.7222
1.69136
1.65892
0.210367
0.306298
0.368567
0.416328
0.456692
0.492718
0.52603
0.557674
0.588405
0.618817
0.649405
0.680591
0.712735
0.746137
0.781043
0.817645
0.856088
0.896468
0.938847
0.983253
1.02969
1.07814
1.12857
1.18093
1.23518
1.29125
1.34908
1.40861
1.46978
1.53253
1.59678
1.66249
1.72958
1.798
1.86769
1.93858
2.01062
2.08374
2.15788
2.233
2.30903
2.38593
2.46364
2.54211
2.62131
2.7012
2.78174
2.86289
2.94464
3.02695
3.10981
3.1932
3.2771
3.36148
3.44634
3.53164
3.61735
3.70346
3.78991
3.87667
3.96369
4.0509
4.13825
4.22563
4.31298
4.40018
4.48713
4.57371
4.65977
4.74518
4.82978
4.91341
4.9959
5.07706
5.15673
5.23471
5.31081
5.38485
5.45665
5.52603
5.59282
5.65686
5.718
5.7761
5.83105
5.88274
5.93107
5.97599
6.01744
6.05541
6.08987
6.12083
6.14831
6.17233
6.19295
6.21022
6.22421
6.235
6.24267
6.24712
6.24861
6.24719
6.24294
6.23592
6.22623
6.21397
6.19921
6.18204
6.16257
6.1409
6.11712
6.09133
6.06363
6.03411
6.00286
5.96997
5.93551
5.89953
5.86205
5.82309
5.78261
5.74055
5.6968
5.65122
5.60363
5.55382
5.50158
5.44667
5.38882
5.32783
5.26349
5.19569
5.12434
5.04945
4.97109
4.88939
4.80458
4.71693
4.62674
4.53439
4.44026
4.34474
4.24823
4.1511
4.0537
3.95635
3.85937
3.76304
3.66766
3.57349
3.48071
3.38954
3.30014
3.21268
3.12731
3.04415
2.9633
2.88478
2.80866
2.73493
2.66362
2.59473
2.52823
2.4641
2.4023
2.3428
2.28558
2.23061
2.17785
2.12723
2.0787
2.03221
1.98774
1.94525
1.90476
1.86626
1.8297
1.79525
1.76324
1.73018
0.224679
0.323305
0.388092
0.438018
0.480313
0.518097
0.553024
0.586147
0.618225
0.649846
0.681502
0.713606
0.746515
0.78053
0.815902
0.852831
0.891473
0.931941
0.97431
1.01862
1.0649
1.11315
1.16333
1.21544
1.26942
1.32525
1.38287
1.44224
1.50331
1.56604
1.63039
1.69629
1.76371
1.83259
1.90288
1.97455
2.04753
2.12177
2.19723
2.27386
2.3516
2.43041
2.51024
2.59104
2.67279
2.75543
2.83894
2.92328
3.00843
3.09436
3.18106
3.2685
3.35667
3.44555
3.53513
3.62536
3.71624
3.80773
3.89978
3.99236
4.08541
4.17887
4.27266
4.3667
4.46089
4.55512
4.64927
4.7432
4.83676
4.9298
5.02213
5.11357
5.20393
5.29299
5.38056
5.4664
5.55031
5.63206
5.71143
5.7882
5.86219
5.93318
6.00099
6.06546
6.12643
6.18376
6.23734
6.28708
6.33289
6.37474
6.4126
6.44646
6.4763
6.50217
6.52409
6.54213
6.55634
6.56682
6.57354
6.5766
6.57616
6.57226
6.56497
6.55437
6.54055
6.5236
6.50363
6.48071
6.45497
6.42651
6.39545
6.36191
6.32602
6.28791
6.24771
6.20555
6.16155
6.11582
6.06847
6.01955
5.96914
5.91725
5.86385
5.80889
5.75228
5.69386
5.63348
5.57102
5.5062
5.43884
5.3688
5.29596
5.22024
5.14162
5.06015
4.97593
4.88912
4.79993
4.70863
4.61551
4.5209
4.42513
4.32853
4.23143
4.13413
4.03692
3.94006
3.84383
3.74858
3.6545
3.56178
3.47059
3.38111
3.29348
3.20788
3.12444
3.04322
2.9643
2.88768
2.81341
2.74152
2.67199
2.60483
2.54
2.47747
2.41722
2.35922
2.30345
2.24986
2.19841
2.14906
2.10176
2.05649
2.01325
1.97203
1.93285
1.89562
1.86041
1.82743
1.79384
0.235867
0.336299
0.402954
0.454548
0.498374
0.537594
0.573879
0.608283
0.641557
0.674281
0.706927
0.739896
0.77353
0.808119
0.843906
0.881092
0.919834
0.960251
1.00243
1.04643
1.09229
1.14001
1.1896
1.24105
1.29434
1.34946
1.40636
1.46504
1.52546
1.5876
1.65142
1.7169
1.78399
1.85266
1.92288
1.99462
2.06783
2.14248
2.21854
2.29595
2.37467
2.45467
2.53591
2.61834
2.70193
2.78664
2.87244
2.95931
3.04721
3.13612
3.22603
3.31691
3.40877
3.50158
3.59533
3.68998
3.78551
3.88188
3.97907
4.07702
4.17568
4.27499
4.37486
4.47521
4.57592
4.6769
4.77799
4.87906
4.97993
5.08044
5.18038
5.27954
5.37772
5.47467
5.57015
5.66392
5.75571
5.84528
5.93237
6.01673
6.09811
6.17628
6.25102
6.32212
6.3894
6.45269
6.51183
6.56671
6.61722
6.6633
6.70489
6.74197
6.77453
6.80257
6.82613
6.84525
6.85999
6.87042
6.87658
6.87857
6.8765
6.87038
6.86031
6.84636
6.82861
6.80716
6.7821
6.75353
6.72156
6.68631
6.64792
6.60651
6.56224
6.51528
6.46577
6.41391
6.35986
6.30378
6.24586
6.18624
6.12507
6.06247
5.9985
5.93321
5.86664
5.7987
5.7293
5.65831
5.58535
5.51066
5.43416
5.35576
5.27539
5.19303
5.10866
5.02234
4.93414
4.84421
4.75272
4.65989
4.56594
4.47113
4.37573
4.27998
4.18413
4.08841
3.99303
3.89815
3.80417
3.71131
3.61973
3.5296
3.44106
3.35422
3.26934
3.18651
3.10582
3.02729
2.95097
2.87689
2.8051
2.7356
2.66839
2.60344
2.54072
2.48022
2.42191
2.36577
2.31178
2.25988
2.21005
2.16225
2.11648
2.07272
2.03098
1.99128
1.95353
1.91772
1.88398
1.85001
0.243938
0.345403
0.413323
0.466107
0.511068
0.551392
0.588758
0.624216
0.658505
0.692188
0.725718
0.759473
0.793774
0.828891
0.865053
0.902447
0.941226
0.981509
1.02339
1.06693
1.11217
1.15916
1.2079
1.25841
1.31068
1.36472
1.42052
1.47808
1.53738
1.59843
1.66123
1.72577
1.79198
1.85985
1.92939
2.00057
2.07338
2.1478
2.2238
2.30134
2.38039
2.46093
2.54291
2.62631
2.71109
2.79723
2.88469
2.97345
3.06348
3.15475
3.24722
3.34093
3.43588
3.53204
3.62938
3.72788
3.82751
3.92823
4.03002
4.13282
4.23659
4.34126
4.44673
4.55294
4.65975
4.76706
4.87471
4.98255
5.0904
5.19808
5.30536
5.41202
5.51781
5.62247
5.72574
5.82733
5.92695
6.02431
6.11911
6.21108
6.29992
6.38536
6.46715
6.54503
6.61879
6.68821
6.75313
6.81337
6.86881
6.91936
6.96494
7.00551
7.04103
7.07151
7.09698
7.11745
7.133
7.14368
7.14955
7.15071
7.1473
7.13925
7.12666
7.1096
7.08815
7.06239
7.03241
6.99832
6.96021
6.91823
6.87249
6.82317
6.77041
6.71441
6.65535
6.59346
6.52893
6.46202
6.39295
6.32197
6.2493
6.17521
6.09982
6.02328
5.94521
5.86615
5.78627
5.70562
5.62476
5.54325
5.46082
5.3774
5.29293
5.20733
5.12056
5.03263
4.94355
4.85339
4.76223
4.67022
4.57751
4.48429
4.39073
4.29702
4.20334
4.10986
4.01676
3.92424
3.83283
3.74252
3.65338
3.56555
3.47915
3.39422
3.31106
3.2298
3.15052
3.07325
2.99803
2.92489
2.85392
2.78513
2.71851
2.65404
2.5917
2.53147
2.47335
2.41731
2.36334
2.31139
2.26146
2.2135
2.16753
2.12353
2.08151
2.04148
2.00335
1.96711
1.93283
1.89864
0.24898
0.350816
0.419457
0.472984
0.518697
0.559791
0.597947
0.634209
0.669301
0.703767
0.738036
0.772465
0.807351
0.842937
0.87943
0.916997
0.955779
0.995888
1.03741
1.08042
1.12498
1.17111
1.21887
1.26826
1.31931
1.37206
1.42652
1.48265
1.54049
1.60008
1.66146
1.72468
1.78963
1.85632
1.92477
1.99498
2.06693
2.14063
2.21605
2.29319
2.37202
2.45251
2.53466
2.61842
2.70379
2.79073
2.87922
2.96925
3.06078
3.1538
3.24827
3.34427
3.44175
3.54068
3.64105
3.74281
3.84594
3.95039
4.05617
4.16323
4.27151
4.38094
4.49144
4.60291
4.71525
4.82832
4.94198
5.05607
5.1704
5.28476
5.39892
5.51264
5.62565
5.73767
5.84839
5.9575
6.06468
6.16961
6.27195
6.37136
6.46754
6.56017
6.64894
6.73358
6.81381
6.8894
6.96013
7.02581
7.08628
7.14141
7.19111
7.23531
7.27395
7.30703
7.33456
7.35657
7.3731
7.38421
7.38997
7.39051
7.38601
7.37625
7.36135
7.34139
7.31641
7.28651
7.25176
7.21226
7.16811
7.11944
7.06637
7.00908
6.94775
6.88258
6.81377
6.74157
6.66624
6.58807
6.50739
6.4245
6.33962
6.25269
6.16441
6.07515
5.98589
5.89658
5.80716
5.71774
5.62882
5.53956
5.45034
5.36121
5.27214
5.18306
5.09388
5.00455
4.91502
4.82524
4.73523
4.645
4.55461
4.46414
4.37367
4.28329
4.19311
4.10321
4.01369
3.92454
3.83638
3.74921
3.66313
3.57824
3.49465
3.41227
3.33187
3.25325
3.17641
3.10138
3.02819
2.95683
2.88745
2.82008
2.75472
2.69135
2.62997
2.57056
2.51313
2.45768
2.40419
2.35262
2.30296
2.25521
2.20935
2.1654
2.12336
2.08322
2.04489
2.00843
1.97384
1.93963
0.251189
0.352789
0.421663
0.475528
0.521636
0.563178
0.601834
0.638642
0.674311
0.709356
0.744171
0.779132
0.814504
0.850497
0.887286
0.925013
0.963802
1.00375
1.04494
1.08744
1.13132
1.17662
1.22341
1.27166
1.32143
1.37279
1.42584
1.48052
1.53686
1.59492
1.65468
1.71617
1.77943
1.84452
1.91145
1.98026
2.05095
2.12354
2.19801
2.27437
2.35261
2.43271
2.51467
2.59846
2.68406
2.77147
2.86064
2.95158
3.04425
3.13863
3.23471
3.33245
3.43186
3.53294
3.63567
3.74004
3.84602
3.95355
4.06268
4.17332
4.2854
4.39886
4.51362
4.62962
4.74672
4.86481
4.98373
5.10332
5.22339
5.34371
5.46406
5.58417
5.70375
5.8225
5.94009
6.05618
6.17041
6.28243
6.39185
6.49832
6.60147
6.70096
6.79643
6.88757
6.97406
7.05564
7.13204
7.20304
7.26844
7.32809
7.38186
7.42966
7.47141
7.5071
7.53671
7.56027
7.57782
7.58941
7.5951
7.59513
7.58966
7.57831
7.56123
7.53845
7.51005
7.47608
7.43662
7.39175
7.34158
7.28621
7.22579
7.16048
7.09048
7.016
6.93728
6.85459
6.76818
6.67806
6.5848
6.48892
6.39099
6.29209
6.19216
6.09155
5.9912
5.89043
5.79006
5.69041
5.59184
5.49433
5.39807
5.30313
5.20948
5.11707
5.02578
4.9355
4.84607
4.75738
4.6693
4.58176
4.49468
4.40803
4.32177
4.23589
4.15039
4.06529
3.98062
3.89646
3.81303
3.73042
3.64873
3.56806
3.4885
3.40995
3.33294
3.25749
3.18364
3.1114
3.0408
2.97184
2.90485
2.8397
2.77636
2.71481
2.65505
2.59703
2.54084
2.48648
2.43393
2.38317
2.3342
2.28702
2.24162
2.19803
2.15624
2.11622
2.07795
2.04152
2.00685
1.97283
0.250828
0.351851
0.420498
0.474272
0.52038
0.562001
0.600818
0.637867
0.673849
0.709269
0.744511
0.779944
0.81577
0.852164
0.889271
0.927211
0.966081
1.00596
1.04693
1.08904
1.13237
1.17697
1.22294
1.27023
1.3189
1.369
1.42056
1.47362
1.52827
1.58462
1.64272
1.7026
1.76431
1.82788
1.89337
1.96081
2.03023
2.10165
2.17508
2.25054
2.32804
2.40757
2.48914
2.57271
2.65829
2.74585
2.83538
2.92686
3.02027
3.11558
3.21279
3.31187
3.41282
3.51564
3.62031
3.7268
3.83508
3.9451
4.05683
4.17026
4.28534
4.40199
4.52018
4.63981
4.76077
4.88294
5.00619
5.13035
5.25522
5.3806
5.50623
5.63185
5.75716
5.88182
6.0055
6.12782
6.24839
6.36683
6.48272
6.59566
6.70524
6.81109
6.9128
7.01002
7.1024
7.18963
7.27139
7.34743
7.41752
7.48146
7.53909
7.5903
7.63498
7.6731
7.70464
7.72959
7.74799
7.75989
7.76534
7.76477
7.75824
7.7452
7.72581
7.7001
7.66811
7.62991
7.58554
7.53509
7.47865
7.41633
7.34827
7.2746
7.19544
7.11094
7.02144
6.92728
6.82886
6.72709
6.62204
6.51432
6.40483
6.2931
6.18015
6.06661
5.95319
5.84027
5.72844
5.61822
5.51002
5.40413
5.30076
5.20005
5.10203
5.00663
4.9137
4.82307
4.73449
4.64773
4.56255
4.47874
4.3961
4.31445
4.23363
4.1535
4.07396
3.99494
3.9164
3.83835
3.76089
3.68409
3.60801
3.53273
3.45835
3.38489
3.31258
3.24152
3.17178
3.10338
3.03635
2.97066
2.90661
2.84416
2.7833
2.72405
2.66638
2.61031
2.55595
2.50325
2.45217
2.40271
2.35487
2.30864
2.26405
2.22113
2.17985
2.14025
2.10235
2.0662
2.0317
1.99809
0.248488
0.348334
0.416285
0.469588
0.515387
0.556846
0.595642
0.632806
0.669025
0.70478
0.740421
0.776233
0.812442
0.849217
0.886684
0.924944
0.964076
1.00415
1.0452
1.08729
1.13047
1.17479
1.22027
1.26697
1.31496
1.3643
1.41505
1.46726
1.52102
1.57639
1.63347
1.6923
1.75296
1.8155
1.88001
1.94651
2.01504
2.08564
2.15829
2.23311
2.31009
2.38922
2.47051
2.55394
2.63949
2.72716
2.81692
2.90874
3.00262
3.09852
3.19642
3.2963
3.39816
3.50197
3.60771
3.71537
3.82491
3.93631
4.04955
4.16458
4.28139
4.39992
4.5201
4.64186
4.76512
4.88978
5.01572
5.14278
5.27079
5.39953
5.52877
5.65825
5.78764
5.91662
6.04481
6.17184
6.29728
6.42071
6.5417
6.65981
6.77458
6.8856
6.99244
7.0947
7.19199
7.28393
7.37021
7.4505
7.52454
7.59209
7.65297
7.70701
7.75409
7.79415
7.82715
7.85307
7.87193
7.88376
7.88858
7.88726
7.87944
7.86451
7.84262
7.81379
7.77805
7.73542
7.68594
7.62966
7.56665
7.49704
7.42093
7.33854
7.2502
7.15617
7.05667
6.95214
6.84323
6.72972
6.61241
6.49199
6.36911
6.24428
6.11825
5.99183
5.86583
5.74096
5.61795
5.49747
5.38009
5.26626
5.15629
5.05041
4.94868
4.85103
4.75728
4.66719
4.58041
4.49659
4.41537
4.3364
4.25933
4.18384
4.10963