/*--------------------------------*- C++ -*----------------------------------*\
| =========                 |                                                 |
| \\      /  F ield         | OpenFOAM: The Open Source CFD Toolbox           |
|  \\    /   O peration     | Version:  5.0                                   |
|   \\  /    A nd           | Web:      www.OpenFOAM.org                      |
|    \\/     M anipulation  |                                                 |
\*---------------------------------------------------------------------------*/
FoamFile
{
    version     2.0;
    format      ascii;
    class       volScalarField;
    location    "100";
    object      nut;
}
// * * * * * * * * * * * * * * * * * * * * * * * * * * * * * * * * * * * * * //

dimensions      [0 2 -1 0 0 0 0];

internalField   nonuniform List<scalar> 
12225
(
4.14924e-05
3.93417e-05
3.74815e-05
3.54351e-05
3.37808e-05
3.24256e-05
3.15037e-05
3.09147e-05
3.09195e-05
3.11017e-05
3.15729e-05
3.21228e-05
3.31628e-05
3.38431e-05
3.5136e-05
3.57164e-05
3.77785e-05
3.5537e-05
0.000332259
0.000215134
0.000179291
0.000157641
0.000146234
0.000138164
0.000132678
0.000131734
0.000129404
0.000130172
0.000128932
0.000129564
0.000128541
0.000128707
0.000127938
0.000127619
0.000127657
0.000126328
0.000668776
0.000450541
0.000355823
0.000309746
0.000275337
0.000251005
0.000231732
0.000217177
0.000202608
0.000192048
0.000182523
0.000175034
0.000169286
0.000163356
0.000160193
0.000155024
0.000153599
0.000149052
0.000801645
0.00069157
0.000572672
0.000499944
0.000449457
0.000411863
0.000380814
0.000355865
0.000333991
0.000314581
0.000298243
0.000281411
0.000270145
0.000255582
0.000247825
0.000235479
0.000229477
0.000219191
0.000839616
0.000810134
0.000740802
0.000676304
0.000624005
0.000581265
0.000545908
0.000514405
0.000489507
0.00046421
0.000445765
0.00042374
0.000409681
0.000390316
0.000379295
0.00036234
0.000353316
0.000337925
0.000850345
0.000843264
0.000819563
0.000786476
0.000750836
0.000715795
0.000685785
0.000656006
0.000632525
0.000607332
0.000588883
0.000566962
0.000552
0.000532643
0.000520205
0.000502943
0.000492218
0.000476021
0.000851581
0.000851014
0.000843301
0.000833456
0.000817146
0.000796902
0.000777883
0.000756654
0.000738871
0.000719017
0.000703426
0.000685405
0.000671879
0.000655549
0.000643833
0.000628868
0.000618643
0.000603993
0.000851584
0.000851811
0.000850043
0.000847451
0.000841408
0.000833746
0.000824806
0.000813396
0.000802789
0.000790396
0.000779636
0.000767398
0.00075725
0.000745519
0.000736203
0.000725054
0.000716549
0.000705232
0.000851675
0.000851527
0.000851019
0.000850338
0.000848877
0.000846165
0.000843025
0.000838285
0.000833387
0.000827323
0.000821163
0.000814695
0.000808299
0.000801369
0.00079503
0.00078813
0.000781795
0.000774733
0.000851756
0.000851384
0.000851045
0.000850631
0.000850248
0.000849364
0.000848404
0.000846773
0.000844946
0.000842512
0.000839897
0.000836758
0.000833736
0.00083007
0.000826856
0.000822778
0.000819691
0.000815022
0.000851785
0.000851357
0.000851013
0.000850613
0.00085033
0.000849903
0.000849525
0.000848925
0.000848298
0.000847384
0.000846453
0.000845156
0.000843962
0.000842311
0.000840943
0.00083896
0.000837551
0.000835242
0.000851789
0.000851359
0.000850996
0.000850605
0.000850292
0.000849938
0.000849645
0.000849278
0.000848952
0.000848499
0.000848091
0.000847497
0.000846983
0.000846224
0.000845617
0.000844687
0.000844019
0.000842926
0.000851786
0.000851363
0.000850986
0.000850604
0.000850269
0.000849926
0.000849629
0.000849312
0.000849041
0.000848725
0.000848458
0.00084812
0.000847836
0.000847456
0.000847145
0.000846712
0.000846372
0.000845884
0.000851783
0.000851364
0.000850978
0.000850602
0.000850256
0.000849917
0.000849607
0.000849299
0.000849022
0.000848739
0.000848486
0.000848221
0.000847985
0.000847731
0.000847504
0.000847254
0.00084703
0.000846781
0.000851781
0.000851364
0.000850973
0.000850598
0.000850247
0.000849909
0.000849592
0.000849287
0.000849
0.000848723
0.000848463
0.000848211
0.000847975
0.000847745
0.000847529
0.000847317
0.000847118
0.000846924
0.00085178
0.000851363
0.000850969
0.000850594
0.000850239
0.000849901
0.000849581
0.000849275
0.000848985
0.000848708
0.000848445
0.000848193
0.000847953
0.000847724
0.000847506
0.000847298
0.000847099
0.000846909
0.000851779
0.000851363
0.000850967
0.000850591
0.000850234
0.000849895
0.000849573
0.000849266
0.000848974
0.000848696
0.000848431
0.000848178
0.000847936
0.000847706
0.000847486
0.000847276
0.000847075
0.000846884
0.000851779
0.000851362
0.000850965
0.000850589
0.000850231
0.000849891
0.000849568
0.00084926
0.000848967
0.000848687
0.000848421
0.000848167
0.000847924
0.000847692
0.000847471
0.000847259
0.000847057
0.000846864
0.000851779
0.000851362
0.000850965
0.000850588
0.00085023
0.00084989
0.000849566
0.000849257
0.000848963
0.000848683
0.000848416
0.000848161
0.000847918
0.000847685
0.000847463
0.00084725
0.000847047
0.000846853
0.000851779
0.000851362
0.000850966
0.000850589
0.000850232
0.000849892
0.000849568
0.00084926
0.000848967
0.000848687
0.00084842
0.000848165
0.000847921
0.000847688
0.000847465
0.000847253
0.000847048
0.000846853
0.000851779
0.000851363
0.000850967
0.000850592
0.000850235
0.000849897
0.000849574
0.000849268
0.000848974
0.000848695
0.000848426
0.000848172
0.000847923
0.000847688
0.000847456
0.000847238
0.00084702
0.000846815
0.000851778
0.000851366
0.000850968
0.000850599
0.00085024
0.000849908
0.000849581
0.000849275
0.000848966
0.000848673
0.000848367
0.000848075
0.00084776
0.000847461
0.000847129
0.000846819
0.000846466
0.000846147
0.000851773
0.000851376
0.000850971
0.000850615
0.000850241
0.00084989
0.000849479
0.000849055
0.000848531
0.000847981
0.000847305
0.000846609
0.000845773
0.000844947
0.000843965
0.000843042
0.000841934
0.000840959
0.000851768
0.000851415
0.000850964
0.000850548
0.000849861
0.000848967
0.000847612
0.000845978
0.000843909
0.000841642
0.000838963
0.000836225
0.000833131
0.000830132
0.000826787
0.00082371
0.000820221
0.000817223
0.000851859
0.00085138
0.000850196
0.000848243
0.000844471
0.000839356
0.000832769
0.000825665
0.000817972
0.000810024
0.000801637
0.000793652
0.000785364
0.000777746
0.000769793
0.00076276
0.000755196
0.000748882
0.000852108
0.000847667
0.000839902
0.000827146
0.000808712
0.000789649
0.000769986
0.000751424
0.000733325
0.000716919
0.000700968
0.00068682
0.000672883
0.000660733
0.000648457
0.000638033
0.000627065
0.000618149
0.000843241
0.000822507
0.000775188
0.000726458
0.000684904
0.000649857
0.000618477
0.000592035
0.000568409
0.000548341
0.000529732
0.000514038
0.000498817
0.000486089
0.000473295
0.000462812
0.000451752
0.000442949
0.000795687
0.000668243
0.000570629
0.000509908
0.000465613
0.000431192
0.000404161
0.000382497
0.000364225
0.000349096
0.000335979
0.000325103
0.000314566
0.000306294
0.000298036
0.000291451
0.000284386
0.000279045
0.000501313
0.000348359
0.000292674
0.000259183
0.000236327
0.000221181
0.000211628
0.000203864
0.000198572
0.000195086
0.000192231
0.000190381
0.000188595
0.000187455
0.000186183
0.000185491
0.000184576
0.000184167
7.27386e-05
7.02254e-05
6.79544e-05
6.56136e-05
6.3383e-05
6.12761e-05
5.94945e-05
5.7955e-05
5.67107e-05
5.57026e-05
5.49767e-05
5.44165e-05
5.41073e-05
5.38779e-05
5.3891e-05
5.39271e-05
5.40844e-05
5.43134e-05
3.72115e-06
4.94401e-05
7.40403e-05
9.59094e-05
0.000115903
0.000134463
0.000151786
0.000167348
0.00018046
0.000190352
0.000196363
0.000199399
0.000199637
0.000179529
0.000143908
1.83662e-05
1.75321e-05
1.94384e-05
2.30739e-05
2.72135e-05
3.70797e-05
4.62655e-05
5.15031e-05
5.34866e-05
5.56779e-05
5.78185e-05
5.99737e-05
6.21179e-05
6.4254e-05
6.63596e-05
6.84379e-05
7.04704e-05
7.24633e-05
7.44016e-05
7.6294e-05
7.81282e-05
7.99151e-05
8.16438e-05
8.33263e-05
8.49531e-05
8.65365e-05
8.80677e-05
8.95591e-05
9.10026e-05
9.2411e-05
9.37758e-05
9.5109e-05
9.64023e-05
9.76673e-05
9.88955e-05
0.000100098
0.000101266
0.000102411
0.000103524
0.000104614
0.000105673
0.000106711
0.000107719
0.000108704
0.000109661
0.000110596
0.000111501
0.000112385
0.000113239
0.00011407
0.000114872
0.000115651
0.000116403
0.00011713
0.00011783
0.000118504
0.00011915
0.000119768
0.000120359
0.000120922
0.00012146
0.000121971
0.000122459
0.000122922
0.000123364
0.000123783
0.000124185
0.000124567
0.000124938
0.000125291
0.000125637
0.000125968
0.000126298
0.00012662
0.000126945
0.000127273
0.000127602
0.000127935
0.000128271
0.000128613
0.000128962
0.000129322
0.000129696
0.000130086
0.000130478
0.000130825
0.000131198
0.000131491
0.000131659
0.000131662
0.000131246
0.000130034
0.000131811
0.000134322
0.000131365
0.000134459
0.000133896
0.000134394
0.00013204
0.000133115
0.00013475
0.000132669
0.000134122
0.000133199
0.00013269
0.000134112
0.000133479
0.0001335
0.000133149
0.000132837
0.000132438
0.000131986
0.000131479
0.000130912
0.000130269
0.000129554
0.000128765
0.000127897
0.000126953
0.000125975
0.000124886
0.000123724
0.000122483
0.000121165
0.000119781
0.000118353
0.000116821
0.000115181
0.000113744
0.000111748
0.000109079
0.00010766
0.000106501
0.000105357
0.000104188
0.000103005
0.000101806
0.000100598
9.94262e-05
9.8227e-05
9.69459e-05
9.57223e-05
9.45553e-05
9.33638e-05
9.21604e-05
9.09575e-05
8.97725e-05
8.86185e-05
8.74864e-05
8.63746e-05
8.52891e-05
8.42315e-05
8.32002e-05
8.21972e-05
8.1222e-05
8.02747e-05
7.93528e-05
7.84574e-05
7.75749e-05
7.67285e-05
7.58418e-05
7.50416e-05
7.40613e-05
7.31432e-05
7.08834e-05
8.48138e-06
7.44274e-05
0.000150421
0.000209969
0.00025452
0.000287647
0.000311608
0.000328283
0.000338653
0.0003432
0.000341224
0.000331976
0.000316234
0.000295757
0.000266493
0.00022712
0.000224028
0.000231787
0.000244987
0.000262177
0.000283541
0.000305248
0.000320246
0.000332218
0.00034457
0.000357687
0.000371594
0.000386323
0.00040183
0.000418011
0.000434748
0.000451933
0.000469443
0.000487165
0.000504986
0.000522816
0.000540566
0.000558165
0.000575547
0.000592663
0.00060947
0.000625936
0.000642029
0.000657727
0.000673075
0.000688074
0.000702726
0.000717039
0.00073102
0.000744678
0.000758024
0.000771066
0.000783815
0.000796274
0.000808453
0.000820352
0.000831976
0.000843322
0.000854393
0.000865182
0.00087569
0.000885905
0.000895826
0.000905439
0.000914745
0.000923726
0.000932386
0.00094071
0.000948704
0.000956364
0.000963683
0.000970598
0.000977114
0.000983214
0.000988906
0.000994173
0.000999031
0.00100347
0.0010075
0.00101114
0.00101441
0.00101732
0.0010199
0.00102219
0.00102421
0.001026
0.0010276
0.00102904
0.0010304
0.00103173
0.00103314
0.00103468
0.0010364
0.00103835
0.00104058
0.00104315
0.00104609
0.00104943
0.00105316
0.00105724
0.00106172
0.00106676
0.00107208
0.00107785
0.00108409
0.00109063
0.00109768
0.00110528
0.00110973
0.00111353
0.00112059
0.00113038
0.00113511
0.00113529
0.00114422
0.00114936
0.0011521
0.00115845
0.00116304
0.00115992
0.00117018
0.00117268
0.00117949
0.00118369
0.0011875
0.00119064
0.00119309
0.00119483
0.00119595
0.00119602
0.0011951
0.00119318
0.00119023
0.00118624
0.00118131
0.00117538
0.00116849
0.00116068
0.00115199
0.00114246
0.00113224
0.00112131
0.00110937
0.0010975
0.00108487
0.00106721
0.0010478
0.00102761
0.00100705
0.000986354
0.000965663
0.000945099
0.000924669
0.000904473
0.000884618
0.000865025
0.000845894
0.000827565
0.000809707
0.000792119
0.000774967
0.000758333
0.000742208
0.000726466
0.000711144
0.000696295
0.000681887
0.00066791
0.000654367
0.000641246
0.00062851
0.000616173
0.000604095
0.00059246
0.000580762
0.000569573
0.000558387
0.000543305
0.00052855
0.000473892
1.52246e-05
0.000107098
0.000209963
0.000294085
0.000359693
0.00040965
0.000446517
0.000472278
0.000488533
0.00049653
0.000498311
0.000496295
0.000492228
0.000488311
0.000484834
0.000483703
0.000493283
0.000510075
0.000531788
0.000557166
0.000585536
0.000612154
0.000637515
0.00066307
0.000689737
0.000717759
0.000747756
0.000779656
0.000812723
0.000846653
0.000881238
0.00091631
0.000951683
0.000987162
0.00102255
0.00105773
0.00109261
0.00112709
0.00116108
0.00119452
0.00122736
0.00125958
0.00129115
0.00132207
0.00135235
0.00138199
0.001411
0.00143941
0.00146721
0.00149443
0.00152108
0.00154718
0.00157273
0.00159777
0.00162228
0.00164628
0.00166977
0.00169276
0.00171525
0.00173723
0.00175869
0.00177963
0.00180004
0.0018199
0.00183921
0.00185794
0.00187608
0.00189362
0.00191054
0.00192683
0.00194246
0.00195741
0.00197167
0.00198522
0.00199805
0.00201015
0.00202153
0.00203219
0.00204213
0.00205137
0.00205993
0.00206783
0.00207512
0.00208182
0.00208799
0.00209367
0.00209891
0.00210379
0.00210837
0.00211276
0.00211705
0.00212132
0.00212564
0.00213007
0.00213467
0.0021395
0.00214459
0.00214998
0.00215569
0.00216179
0.00216834
0.0021754
0.00218292
0.00219098
0.00219953
0.00220835
0.00221718
0.00222541
0.00223227
0.00223994
0.00224936
0.00226007
0.00226691
0.00227348
0.00228335
0.00229067
0.00229862
0.00230817
0.00231717
0.00232046
0.00232835
0.00233352
0.00234012
0.00234522
0.00234913
0.00235169
0.00235282
0.00235238
0.00235032
0.00234641
0.0023406
0.00233286
0.00232316
0.00231149
0.00229793
0.00228249
0.00226522
0.0022462
0.00222554
0.00220332
0.00217974
0.00215485
0.00212858
0.00210152
0.00207344
0.0020417
0.00200762
0.00197221
0.00193612
0.00189971
0.00186324
0.00182691
0.00179082
0.00175518
0.00172032
0.00168616
0.00165304
0.00162163
0.00159097
0.00156045
0.00153083
0.00150222
0.00147458
0.00144742
0.00142098
0.00139538
0.00137051
0.00134633
0.00132287
0.00130009
0.00127792
0.00125634
0.00123516
0.00121454
0.00119387
0.00117374
0.00115315
0.00112996
0.00111035
0.00103929
2.28353e-05
0.000138204
0.000263504
0.000367382
0.000449809
0.000513487
0.000561615
0.000597044
0.000622341
0.000639965
0.000652495
0.000662641
0.000673079
0.000682872
0.000694269
0.000708937
0.000728587
0.000752851
0.000780825
0.000811468
0.000843567
0.000878104
0.000914625
0.000953084
0.000993601
0.00103624
0.00108041
0.00112565
0.00117198
0.00121916
0.00126697
0.00131533
0.00136413
0.00141326
0.00146228
0.00151099
0.00155924
0.00160692
0.00165394
0.00170025
0.00174579
0.00179053
0.00183444
0.00187753
0.00191979
0.00196123
0.00200186
0.00204168
0.00208072
0.00211899
0.00215651
0.0021933
0.00222937
0.00226474
0.00229941
0.0023334
0.00236671
0.00239935
0.00243131
0.0024626
0.0024932
0.00252311
0.00255232
0.00258082
0.00260857
0.00263558
0.00266181
0.00268724
0.00271186
0.00273564
0.00275857
0.00278061
0.00280174
0.00282196
0.00284125
0.0028596
0.00287701
0.00289347
0.002909
0.0029236
0.0029373
0.00295013
0.00296211
0.00297329
0.00298372
0.00299345
0.00300254
0.00301106
0.00301909
0.00302671
0.00303403
0.00304112
0.00304804
0.00305486
0.00306162
0.00306838
0.00307517
0.00308203
0.003089
0.00309616
0.00310355
0.00311123
0.00311922
0.00312752
0.00313606
0.00314463
0.00315295
0.00316083
0.00316833
0.00317643
0.0031854
0.00319453
0.003202
0.00320961
0.00321832
0.00322731
0.00323716
0.00324593
0.00325232
0.00325667
0.00326282
0.00326788
0.00327248
0.00327573
0.00327745
0.00327747
0.00327582
0.00327218
0.00326641
0.00325833
0.00324786
0.00323491
0.00321946
0.0032015
0.00318108
0.00315823
0.00313302
0.00310557
0.00307598
0.00304439
0.00301097
0.00297588
0.00293921
0.00290126
0.0028619
0.00282005
0.00277613
0.00273085
0.00268476
0.00263825
0.00259162
0.00254511
0.00249888
0.00245316
0.00240823
0.00236415
0.0023211
0.00227947
0.00223903
0.00220007
0.00216278
0.00212699
0.00209268
0.00205855
0.00202542
0.0019935
0.00196248
0.00193229
0.00190304
0.00187463
0.00184694
0.00181992
0.00179338
0.00176739
0.00174149
0.00171601
0.00169006
0.00166213
0.00163945
0.0015702
3.07823e-05
0.000165784
0.000312005
0.00043402
0.000532116
0.000608985
0.000668488
0.000714126
0.000749035
0.000776091
0.000797969
0.000817117
0.000835584
0.000854737
0.000875863
0.000899943
0.00092761
0.00095895
0.000993725
0.00103158
0.0010722
0.00111557
0.00116154
0.00120997
0.00126069
0.00131346
0.00136795
0.00142384
0.00148091
0.00153897
0.0015978
0.00165705
0.00171646
0.00177577
0.00183478
0.0018934
0.00195149
0.00200896
0.00206571
0.00212167
0.00217679
0.00223104
0.00228437
0.00233678
0.00238827
0.00243883
0.00248847
0.00253719
0.00258503
0.00263198
0.00267807
0.00272331
0.00276772
0.00281131
0.0028541
0.0028961
0.00293732
0.00297775
0.0030174
0.00305626
0.00309434
0.00313163
0.0031681
0.00320374
0.00323854
0.00327247
0.00330552
0.00333764
0.00336883
0.00339905
0.00342828
0.00345649
0.00348365
0.00350975
0.00353477
0.00355868
0.00358148
0.00360317
0.00362374
0.00364319
0.00366155
0.00367882
0.00369504
0.00371024
0.00372447
0.00373776
0.00375017
0.00376176
0.00377262
0.0037828
0.00379239
0.00380146
0.00381007
0.00381828
0.00382613
0.00383366
0.00384093
0.00384796
0.00385481
0.00386154
0.0038682
0.00387487
0.00388157
0.00388836
0.00389522
0.00390205
0.00390871
0.00391503
0.00392108
0.00392745
0.00393444
0.00394137
0.00394712
0.00395373
0.00396188
0.00396944
0.0039756
0.00398068
0.00398514
0.0039889
0.00399265
0.00399554
0.00399751
0.00399812
0.00399712
0.00399427
0.00398957
0.00398272
0.00397353
0.00396184
0.00394753
0.0039305
0.0039107
0.00388811
0.00386275
0.00383468
0.00380395
0.00377068
0.00373499
0.00369706
0.00365707
0.00361519
0.00357158
0.00352641
0.00347968
0.00343101
0.00338062
0.00332897
0.00327649
0.00322356
0.00317049
0.0031175
0.00306482
0.00301266
0.00296127
0.00291077
0.00286132
0.00281316
0.00276626
0.0027208
0.00267693
0.00263497
0.0025953
0.00255708
0.00252041
0.00248536
0.00245122
0.00241792
0.00238574
0.00235457
0.00232411
0.00229431
0.00226502
0.00223624
0.00220768
0.00217946
0.00215097
0.00212107
0.00209588
0.00202954
3.86153e-05
0.000190872
0.000355795
0.000494656
0.00060725
0.00069694
0.000767663
0.000823415
0.000867703
0.000903637
0.000933991
0.000961196
0.000987298
0.00101391
0.00104229
0.0010733
0.0011075
0.00114513
0.00118618
0.00123055
0.00127808
0.00132862
0.00138198
0.00143795
0.00149628
0.00155666
0.0016188
0.0016824
0.00174716
0.00181283
0.00187914
0.00194583
0.00201263
0.00207933
0.00214575
0.00221175
0.0022772
0.002342
0.00240605
0.00246928
0.00253164
0.00259309
0.00265359
0.00271313
0.0027717
0.00282929
0.00288591
0.00294157
0.00299628
0.00305005
0.0031029
0.00315485
0.00320591
0.0032561
0.00330543
0.00335391
0.00340155
0.00344835
0.00349433
0.00353946
0.00358376
0.0036272
0.00366979
0.00371148
0.00375228
0.00379215
0.00383106
0.00386899
0.00390591
0.00394178
0.00397656
0.00401024
0.00404277
0.00407413
0.00410428
0.0041332
0.00416087
0.00418728
0.0042124
0.00423623
0.00425878
0.00428005
0.00430005
0.00431881
0.00433635
0.00435272
0.00436794
0.00438207
0.00439517
0.00440729
0.00441851
0.00442888
0.00443846
0.0044473
0.00445544
0.00446294
0.00446982
0.00447614
0.00448195
0.00448732
0.0044923
0.00449696
0.00450134
0.00450552
0.00450955
0.00451344
0.00451711
0.00452042
0.00452309
0.00452576
0.00452944
0.00453412
0.00453711
0.00453982
0.00454296
0.00454591
0.00454808
0.00454978
0.00455095
0.00455162
0.00455188
0.00455138
0.00454993
0.00454725
0.00454309
0.00453724
0.00452953
0.00451973
0.00450764
0.00449307
0.00447588
0.00445596
0.00443323
0.00440765
0.00437922
0.00434796
0.00431396
0.00427729
0.0042381
0.00419655
0.00415282
0.00410708
0.00405951
0.00401027
0.00395943
0.00390695
0.00385301
0.00379791
0.00374201
0.00368563
0.00362904
0.0035725
0.00351623
0.00346045
0.00340537
0.00335115
0.00329795
0.00324592
0.00319514
0.00314573
0.00309782
0.00305161
0.00300733
0.00296524
0.00292544
0.00288784
0.00285204
0.00281777
0.00278491
0.00275287
0.00272142
0.0026906
0.00266025
0.00263036
0.00260074
0.00257142
0.00254204
0.00251178
0.00248491
0.00242613
4.608e-05
0.00021312
0.000394495
0.00054876
0.000674838
0.000776737
0.00085835
0.000923979
0.000977361
0.00102176
0.00106003
0.00109463
0.00112765
0.00116074
0.00119521
0.00123199
0.00127168
0.00131462
0.00136092
0.00141058
0.00146347
0.00151943
0.00157825
0.00163968
0.00170344
0.00176923
0.00183675
0.00190569
0.00197577
0.0020467
0.00211823
0.0021901
0.00226208
0.00233399
0.00240563
0.00247687
0.00254758
0.00261765
0.00268699
0.00275554
0.00282323
0.00289001
0.00295587
0.00302077
0.0030847
0.00314766
0.00320965
0.00327067
0.00333074
0.00338986
0.00344806
0.00350535
0.00356174
0.00361725
0.0036719
0.0037257
0.00377865
0.00383076
0.00388203
0.00393247
0.00398206
0.00403079
0.00407865
0.00412562
0.00417167
0.00421678
0.00426092
0.00430404
0.00434612
0.00438711
0.00442697
0.00446566
0.00450314
0.00453935
0.00457427
0.00460785
0.00464005
0.00467085
0.00470021
0.00472811
0.00475454
0.00477948
0.00480294
0.00482491
0.00484541
0.00486445
0.00488207
0.00489829
0.00491316
0.00492672
0.00493902
0.00495012
0.00496005
0.00496888
0.00497664
0.00498339
0.00498916
0.00499401
0.004998
0.00500118
0.00500362
0.00500543
0.00500656
0.00500719
0.00500745
0.00500741
0.00500704
0.00500644
0.00500501
0.0050035
0.00500237
0.00500111
0.00499918
0.00499709
0.00499493
0.00499254
0.00498979
0.00498674
0.00498337
0.00497966
0.00497558
0.00497092
0.00496549
0.00495908
0.00495147
0.00494245
0.0049318
0.00491931
0.00490474
0.00488792
0.00486865
0.00484681
0.00482229
0.00479502
0.00476496
0.00473214
0.00469659
0.00465841
0.0046177
0.0045746
0.00452929
0.00448193
0.00443269
0.00438174
0.00432919
0.00427515
0.00421977
0.00416332
0.00410607
0.0040483
0.00399026
0.00393222
0.00387437
0.00381696
0.00376017
0.00370419
0.00364916
0.00359522
0.00354245
0.00349097
0.00344092
0.00339242
0.00334563
0.00330074
0.00325815
0.00321845
0.00318132
0.00314632
0.00311311
0.0030812
0.0030503
0.00301999
0.00298994
0.00296026
0.00293083
0.00290164
0.00287249
0.00284289
0.00281537
0.00276435
5.29658e-05
0.000232302
0.000427785
0.000595814
0.000734269
0.000847647
0.000939689
0.00101487
0.00107707
0.00112962
0.00117545
0.00121702
0.00125644
0.00129541
0.00133527
0.001377
0.0014213
0.00146857
0.00151901
0.00157267
0.00162947
0.00168927
0.00175184
0.00181694
0.0018843
0.00195362
0.0020246
0.00209696
0.0021704
0.00224468
0.00231953
0.00239473
0.00247006
0.00254534
0.0026204
0.00269509
0.00276931
0.00284294
0.0029159
0.00298811
0.00305951
0.00313007
0.00319974
0.00326851
0.00333635
0.00340327
0.00346926
0.00353431
0.00359846
0.0036617
0.00372405
0.00378553
0.00384615
0.00390593
0.00396489
0.00402303
0.00408038
0.00413692
0.00419267
0.00424762
0.00430177
0.0043551
0.0044076
0.00445924
0.00450999
0.00455983
0.00460872
0.00465661
0.00470345
0.00474921
0.00479382
0.00483723
0.00487938
0.00492022
0.00495969
0.00499773
0.00503429
0.00506932
0.00510277
0.00513459
0.00516475
0.00519322
0.00521997
0.00524499
0.00526827
0.00528981
0.00530961
0.00532769
0.00534407
0.00535879
0.00537188
0.00538338
0.00539334
0.00540179
0.00540879
0.00541438
0.00541861
0.00542154
0.00542322
0.00542371
0.00542305
0.0054215
0.00541871
0.00541509
0.00541107
0.00540684
0.00540167
0.00539574
0.00538916
0.00538222
0.00537511
0.0053677
0.00535987
0.00535179
0.00534354
0.00533513
0.00532655
0.00531785
0.00530905
0.00530013
0.00529103
0.00528163
0.0052718
0.00526134
0.00525007
0.00523778
0.00522426
0.00520928
0.0051926
0.00517401
0.0051533
0.00513031
0.00510489
0.00507695
0.00504642
0.00501329
0.00497758
0.00493935
0.00489867
0.00485567
0.00481047
0.00476322
0.00471409
0.00466323
0.00461079
0.0045569
0.00450174
0.00444553
0.00438851
0.00433091
0.00427298
0.00421496
0.00415705
0.00409949
0.00404248
0.00398619
0.00393077
0.00387634
0.003823
0.00377087
0.00372006
0.0036707
0.00362291
0.00357683
0.00353272
0.00349134
0.0034533
0.00341792
0.00338466
0.00335304
0.00332271
0.00329329
0.00326451
0.003236
0.00320762
0.00317939
0.0031512
0.00312283
0.00309555
0.00305128
5.91107e-05
0.000248327
0.000455565
0.000635592
0.000785196
0.000909153
0.001011
0.00109527
0.00116591
0.0012263
0.00127935
0.00132754
0.00137297
0.00141736
0.00146206
0.00150812
0.00155627
0.001607
0.00166057
0.00171709
0.00177653
0.00183877
0.00190363
0.00197087
0.00204024
0.00211147
0.00218429
0.00225841
0.00233358
0.00240956
0.0024861
0.002563
0.00264007
0.00271713
0.00279402
0.00287062
0.0029468
0.00302247
0.00309755
0.00317196
0.00324564
0.00331856
0.00339068
0.00346197
0.00353242
0.00360201
0.00367076
0.00373865
0.00380571
0.00387194
0.00393736
0.00400199
0.00406584
0.00412894
0.0041913
0.00425293
0.00431384
0.00437405
0.00443355
0.00449234
0.00455041
0.00460775
0.00466435
0.00472017
0.00477518
0.00482935
0.00488263
0.00493497
0.00498632
0.00503661
0.00508577
0.00513375
0.00518046
0.00522584
0.0052698
0.00531227
0.00535317
0.00539243
0.00542998
0.00546575
0.00549968
0.00553172
0.00556182
0.00558993
0.00561603
0.00564009
0.0056621
0.00568205
0.00569995
0.00571581
0.00572966
0.00574152
0.00575143
0.00575943
0.00576556
0.00576987
0.00577242
0.00577327
0.00577248
0.00577011
0.00576595
0.00576029
0.00575361
0.00574607
0.00573774
0.00572811
0.00571745
0.00570583
0.0056934
0.00568033
0.00566676
0.00565273
0.00563828
0.00562353
0.00560859
0.00559354
0.00557847
0.00556345
0.00554854
0.00553376
0.0055191
0.0055045
0.00548987
0.00547506
0.00545992
0.00544427
0.00542789
0.00541056
0.00539202
0.00537203
0.00535035
0.0053268
0.0053012
0.0052734
0.00524331
0.00521089
0.00517612
0.00513903
0.00509964
0.00505803
0.00501429
0.00496855
0.00492093
0.00487159
0.00482066
0.00476829
0.00471466
0.00465997
0.00460442
0.00454823
0.00449161
0.00443479
0.00437798
0.00432142
0.00426531
0.00420984
0.00415515
0.00410133
0.0040485
0.00399677
0.00394627
0.00389713
0.00384944
0.00380333
0.00375899
0.00371696
0.00367857
0.00364321
0.00361021
0.00357905
0.00354937
0.00352081
0.00349313
0.00346605
0.00343936
0.00341263
0.00338585
0.003359
0.00333259
0.0032939
6.44058e-05
0.000261226
0.000477904
0.000668081
0.000827478
0.000960945
0.0010718
0.00116454
0.0012431
0.00131087
0.00137074
0.00142516
0.00147619
0.00152556
0.00157462
0.00162444
0.0016758
0.00172923
0.00178507
0.00184347
0.00190445
0.00196795
0.00203383
0.00210189
0.0021719
0.00224363
0.00231683
0.00239126
0.00246669
0.00254289
0.00261965
0.00269678
0.00277411
0.00285148
0.00292875
0.0030058
0.00308252
0.00315882
0.00323462
0.00330985
0.00338446
0.0034584
0.00353164
0.00360417
0.00367596
0.00374701
0.00381731
0.00388688
0.00395572
0.00402386
0.00409129
0.00415806
0.00422418
0.00428966
0.00435454
0.00441883
0.00448254
0.00454567
0.00460824
0.00467023
0.00473165
0.00479247
0.00485269
0.00491226
0.00497116
0.00502933
0.00508674
0.00514331
0.00519898
0.00525368
0.00530733
0.00535984
0.00541112
0.00546107
0.00550961
0.00555662
0.00560201
0.00564568
0.00568753
0.00572747
0.00576541
0.00580127
0.00583496
0.00586643
0.00589562
0.00592247
0.00594695
0.00596903
0.00598869
0.00600594
0.00602078
0.00603322
0.00604329
0.00605101
0.00605645
0.00605963
0.00606063
0.00605952
0.00605636
0.00605087
0.00604339
0.00603435
0.00602394
0.0060121
0.00599864
0.0059837
0.00596741
0.00594989
0.00593129
0.00591177
0.00589147
0.00587053
0.00584907
0.00582723
0.00580518
0.00578305
0.00576099
0.00573913
0.0057176
0.00569646
0.00567578
0.00565556
0.00563575
0.00561629
0.00559705
0.00557787
0.00555857
0.00553893
0.00551866
0.0054975
0.0054752
0.00545153
0.00542629
0.00539928
0.00537035
0.00533944
0.00530651
0.00527151
0.00523442
0.00519527
0.0051541
0.00511098
0.00506603
0.00501935
0.00497107
0.00492133
0.0048703
0.00481816
0.00476512
0.00471134
0.00465701
0.00460235
0.00454759
0.00449293
0.00443863
0.0043849
0.00433182
0.00427948
0.00422801
0.00417752
0.00412817
0.00408009
0.00403336
0.0039881
0.00394448
0.00390298
0.00386498
0.00383013
0.0037977
0.00376719
0.00373824
0.00371055
0.00368389
0.00365804
0.00363282
0.00360794
0.00358281
0.00355759
0.0035324
0.00349836
6.87832e-05
0.000271097
0.000494969
0.000693369
0.000861086
0.00100274
0.00112176
0.00122219
0.00130799
0.00138252
0.00144864
0.00150875
0.00156489
0.00161873
0.00167162
0.00172464
0.00177859
0.00183403
0.00189135
0.00195076
0.00201234
0.00207606
0.00214184
0.00220953
0.00227895
0.00234989
0.00242216
0.00249554
0.00256985
0.00264488
0.00272046
0.00279643
0.00287262
0.0029489
0.00302514
0.00310124
0.0031771
0.00325264
0.00332778
0.00340247
0.00347665
0.00355028
0.00362334
0.00369581
0.00376768
0.00383894
0.0039096
0.00397966
0.00404914
0.00411807
0.00418645
0.00425432
0.00432172
0.00438867
0.00445519
0.0045213
0.00458702
0.00465235
0.00471731
0.00478189
0.0048461
0.00490991
0.0049733
0.00503625
0.00509871
0.00516063
0.00522196
0.00528262
0.00534253
0.00540162
0.00545978
0.00551691
0.00557289
0.00562762
0.00568096
0.00573279
0.00578299
0.00583142
0.00587796
0.00592248
0.00596487
0.006005
0.00604277
0.00607808
0.00611084
0.00614098
0.00616843
0.00619314
0.00621507
0.00623419
0.0062505
0.00626398
0.00627466
0.00628256
0.00628771
0.00629016
0.00628998
0.00628725
0.00628187
0.00627391
0.0062637
0.00625151
0.00623731
0.00622106
0.00620284
0.00618278
0.00616099
0.00613763
0.00611286
0.00608687
0.00605982
0.0060319
0.00600328
0.00597417
0.00594477
0.00591528
0.00588591
0.00585687
0.00582832
0.00580044
0.00577334
0.00574712
0.00572179
0.00569734
0.00567374
0.00565081
0.00562842
0.00560644
0.00558447
0.00556225
0.00553953
0.00551606
0.00549159
0.00546586
0.00543862
0.00540985
0.00537945
0.00534732
0.00531336
0.00527753
0.00523983
0.00520028
0.00515893
0.00511586
0.00507117
0.005025
0.00497748
0.00492877
0.0048791
0.00482857
0.00477736
0.00472568
0.00467374
0.00462174
0.00457002
0.00451877
0.00446806
0.00441793
0.00436852
0.00431996
0.00427246
0.00422612
0.00418107
0.00413738
0.00409525
0.00405517
0.00401841
0.00398455
0.003953
0.00392334
0.00389523
0.00386844
0.00384275
0.003818
0.00379405
0.00377068
0.00374728
0.00372367
0.00369986
0.00366969
7.22174e-05
0.000278119
0.000507086
0.000711854
0.000886482
0.00103496
0.00116082
0.00126787
0.00135997
0.00144042
0.001512
0.00157708
0.00163763
0.00169528
0.00175136
0.00180692
0.00186277
0.00191951
0.00197754
0.00203712
0.00209837
0.00216134
0.00222596
0.00229216
0.0023598
0.00242872
0.00249876
0.00256976
0.00264158
0.00271407
0.0027871
0.00286051
0.00293417
0.00300794
0.00308174
0.00315549
0.00322908
0.00330246
0.00337556
0.00344831
0.00352068
0.00359264
0.00366416
0.00373525
0.00380588
0.00387608
0.00394585
0.00401519
0.00408414
0.00415271
0.00422092
0.00428885
0.00435652
0.00442398
0.00449125
0.00455834
0.00462529
0.0046921
0.00475879
0.00482537
0.00489183
0.00495816
0.00502433
0.00509033
0.00515609