/*--------------------------------*- C++ -*----------------------------------*\
| =========                 |                                                 |
| \\      /  F ield         | OpenFOAM: The Open Source CFD Toolbox           |
|  \\    /   O peration     | Version:  5.0                                   |
|   \\  /    A nd           | Web:      www.OpenFOAM.org                      |
|    \\/     M anipulation  |                                                 |
\*---------------------------------------------------------------------------*/
FoamFile
{
    version     2.0;
    format      ascii;
    class       volScalarField;
    location    "100";
    object      p;
}
// * * * * * * * * * * * * * * * * * * * * * * * * * * * * * * * * * * * * * //

dimensions      [0 2 -2 0 0 0 0];

internalField   nonuniform List<scalar> 
12225
(
-2.15348
-4.34188
-5.44119
-5.7609
-5.94096
-6.10839
-6.23796
-6.33058
-6.40385
-6.46683
-6.52117
-6.56852
-6.60789
-6.63904
-6.6603
-6.65895
-6.65297
-6.50195
-5.31698
-6.08514
-6.24499
-6.15176
-6.13804
-6.20434
-6.27988
-6.3431
-6.39942
-6.45253
-6.5016
-6.54519
-6.58306
-6.61377
-6.63726
-6.6431
-6.65227
-6.60437
-5.71815
-5.70289
-5.82958
-5.90699
-6.00073
-6.11937
-6.22458
-6.30695
-6.37555
-6.43675
-6.49154
-6.53949
-6.58129
-6.61601
-6.64471
-6.66141
-6.68605
-6.69731
-5.59622
-5.53907
-5.77997
-5.9374
-6.03799
-6.14268
-6.23841
-6.31605
-6.38171
-6.44088
-6.49445
-6.54202
-6.58429
-6.62079
-6.65315
-6.67958
-6.71548
-6.76014
-5.58593
-5.61013
-5.83753
-5.97822
-6.06069
-6.15126
-6.2406
-6.31601
-6.38064
-6.43919
-6.49271
-6.54093
-6.58456
-6.62376
-6.6605
-6.69557
-6.74032
-6.79986
-5.64397
-5.69268
-5.86633
-5.98935
-6.06976
-6.15617
-6.24244
-6.31676
-6.38101
-6.43935
-6.49303
-6.54203
-6.58709
-6.62889
-6.66954
-6.71109
-6.76163
-6.82668
-5.70441
-5.74843
-5.88299
-5.99847
-6.0812
-6.16399
-6.24623
-6.31884
-6.38245
-6.44047
-6.49424
-6.54394
-6.59036
-6.63448
-6.67837
-6.72446
-6.77835
-6.84416
-5.75808
-5.7955
-5.90487
-6.01238
-6.09443
-6.17276
-6.25062
-6.3213
-6.38417
-6.44182
-6.49564
-6.546
-6.59366
-6.63974
-6.68616
-6.73515
-6.79046
-6.85454
-5.80798
-5.8409
-5.93127
-6.02851
-6.10771
-6.18192
-6.2557
-6.32425
-6.38621
-6.44341
-6.4972
-6.54808
-6.59674
-6.64433
-6.69247
-6.743
-6.79828
-6.85944
-5.85524
-5.88428
-5.95929
-6.04585
-6.12127
-6.1918
-6.26172
-6.32789
-6.38871
-6.44533
-6.49894
-6.55011
-6.59947
-6.64803
-6.69712
-6.74809
-6.80234
-6.86012
-5.89979
-5.92511
-5.98784
-6.06444
-6.13544
-6.20241
-6.26864
-6.33228
-6.39173
-6.44761
-6.50087
-6.55209
-6.60178
-6.65079
-6.70013
-6.75073
-6.80333
-6.8577
-5.93808
-5.96024
-6.01404
-6.08239
-6.14892
-6.21259
-6.27563
-6.33689
-6.39492
-6.44995
-6.50271
-6.55371
-6.60339
-6.65236
-6.70142
-6.75113
-6.80193
-6.85332
-5.97349
-5.99303
-6.03952
-6.10051
-6.16254
-6.22296
-6.28298
-6.34187
-6.3984
-6.45244
-6.50453
-6.55511
-6.60449
-6.65314
-6.70154
-6.75008
-6.79892
-6.84757
-6.01069
-6.02772
-6.06747
-6.1212
-6.1782
-6.23497
-6.29173
-6.34798
-6.40268
-6.45548
-6.50661
-6.55642
-6.60516
-6.65308
-6.70043
-6.74736
-6.79392
-6.83964
-6.04843
-6.06309
-6.09691
-6.14382
-6.19555
-6.24837
-6.3017
-6.35505
-6.40762
-6.45885
-6.50871
-6.55735
-6.60498
-6.6517
-6.69758
-6.74255
-6.78658
-6.82934
-6.08478
-6.09734
-6.12619
-6.16709
-6.21366
-6.26245
-6.31232
-6.36269
-6.41283
-6.4622
-6.51044
-6.55754
-6.60357
-6.64865
-6.69264
-6.73543
-6.77682
-6.8167
-6.11685
-6.12771
-6.15269
-6.18872
-6.23076
-6.27577
-6.32242
-6.3699
-6.41753
-6.46476
-6.51114
-6.5564
-6.60052
-6.64353
-6.68538
-6.72581
-6.76464
-6.80174
-6.14029
-6.14998
-6.17236
-6.20503
-6.24376
-6.28583
-6.32988
-6.37495
-6.42032
-6.46546
-6.50992
-6.55325
-6.59533
-6.63617
-6.67577
-6.71387
-6.75029
-6.7849
-6.14815
-6.15739
-6.17882
-6.21025
-6.2477
-6.28848
-6.33121
-6.37491
-6.41886
-6.46249
-6.50536
-6.54701
-6.58729
-6.62616
-6.6637
-6.69967
-6.73395
-6.76644
-6.13287
-6.14275
-6.16561
-6.19898
-6.23836
-6.28053
-6.32415
-6.36835
-6.41252
-6.456
-6.49845
-6.53939
-6.57883
-6.61664
-6.65301
-6.68762
-6.72054
-6.75165
-6.10658
-6.11749
-6.14303
-6.18033
-6.22345
-6.26846
-6.31413
-6.36002
-6.40532
-6.44948
-6.49206
-6.53301
-6.57217
-6.60967
-6.64537
-6.67934
-6.71136
-6.74181
-6.07176
-6.0837
-6.11333
-6.15719
-6.2058
-6.25423
-6.30258
-6.35089
-6.39808
-6.44334
-6.4865
-6.52768
-6.56693
-6.60429
-6.63969
-6.67318
-6.70473
-6.73464
-6.0315
-6.04352
-6.07824
-6.13177
-6.18766
-6.24003
-6.29138
-6.34234
-6.39146
-6.43792
-6.48188
-6.52353
-6.56307
-6.60042
-6.63571
-6.66887
-6.70017
-6.72978
-5.98799
-5.99909
-6.04113
-6.10579
-6.1683
-6.22541
-6.28146
-6.33578
-6.38657
-6.43389
-6.47845
-6.52056
-6.56027
-6.59764
-6.63271
-6.66568
-6.69671
-6.72613
-5.9412
-5.94682
-6.00976
-6.08819
-6.15043
-6.20907
-6.27067
-6.32951
-6.3825
-6.43096
-6.47633
-6.51898
-6.55892
-6.59626
-6.6312
-6.66399
-6.69482
-6.72415
-5.89798
-5.86176
-5.97156
-6.08281
-6.14536
-6.20095
-6.26356
-6.3238
-6.3775
-6.42658
-6.47261
-6.51577
-6.55597
-6.59342
-6.62839
-6.66118
-6.69201
-6.72128
-5.91226
-5.75343
-5.88258
-6.03691
-6.1274
-6.19907
-6.26833
-6.3297
-6.38296
-6.43159
-6.47717
-6.51979
-6.55936
-6.59617
-6.63052
-6.66276
-6.69317
-6.72215
-6.03548
-5.85521
-5.86965
-5.94198
-6.0307
-6.13027
-6.2213
-6.29551
-6.35765
-6.41311
-6.46373
-6.50985
-6.55193
-6.59055
-6.62616
-6.6593
-6.6905
-6.7206
-5.74287
-6.33404
-6.42317
-6.29915
-6.24511
-6.2726
-6.31995
-6.36364
-6.40562
-6.4481
-6.48988
-6.52956
-6.56683
-6.60171
-6.63417
-6.66448
-6.693
-6.72169
-2.75355
-4.51696
-5.5219
-5.82133
-5.97079
-6.11471
-6.22911
-6.31053
-6.37518
-6.43233
-6.48384
-6.5302
-6.5722
-6.61058
-6.64575
-6.67763
-6.70622
-6.72995
-8.07365
-8.07169
-8.06983
-8.0717
-8.07535
-8.07984
-8.08525
-8.0912
-8.09725
-8.10308
-8.10848
-8.11321
-8.11833
-8.12457
-8.13135
-8.13955
-8.15155
-8.16703
-8.18536
-8.20456
-8.21888
-8.22995
-8.24792
-8.27236
-8.29907
-8.32833
-8.36022
-8.39455
-8.43124
-8.46995
-8.51048
-8.55235
-8.59526
-8.6387
-8.68233
-8.72566
-8.76836
-8.80998
-8.85028
-8.88889
-8.92562
-8.96024
-8.99261
-9.02256
-9.05002
-9.07489
-9.09713
-9.11671
-9.13356
-9.14772
-9.15914
-9.16789
-9.17392
-9.17732
-9.17802
-9.17617
-9.17169
-9.16474
-9.15517
-9.14325
-9.12883
-9.11219
-9.09314
-9.07201
-9.04861
-9.02332
-8.9959
-8.96681
-8.93575
-8.90322
-8.86893
-8.83338
-8.79624
-8.75807
-8.71851
-8.67821
-8.6367
-8.59455
-8.55128
-8.50759
-8.46288
-8.41768
-8.37134
-8.32449
-8.27641
-8.22761
-8.17722
-8.12525
-8.07064
-8.01311
-7.95285
-7.88935
-7.82202
-7.75007
-7.67291
-7.58975
-7.49993
-7.40252
-7.29663
-7.18112
-7.05487
-6.9166
-6.76489
-6.59824
-6.4149
-6.21338
-5.99202
-5.74973
-5.48527
-5.19785
-4.88612
-4.54925
-4.18623
-3.79667
-3.37986
-2.93568
-2.46408
-1.96551
-1.44052
-0.89041
-0.316517
0.279388
0.895372
1.52893
2.17725
2.83704
3.50485
4.17701
4.8498
5.51948
6.18237
6.83495
7.47386
8.09604
8.69866
9.27933
9.83591
10.3667
10.8704
11.3461
11.7936
12.2127
12.6039
12.9682
13.3066
13.6203
13.91
14.1762
14.4198
14.6418
14.8436
15.0264
15.1915
15.3404
15.4741
15.594
15.7014
15.7971
15.8824
15.9581
16.0252
16.0844
16.1366
16.1824
16.2225
16.2575
16.2881
16.3147
16.3378
16.3582
16.3763
16.3929
16.4087
16.4251
16.4439
16.4679
16.5039
16.5593
16.662
16.8004
-8.07234
-8.0711
-8.06981
-8.07167
-8.07492
-8.07827
-8.08169
-8.08504
-8.08806
-8.09079
-8.09323
-8.09557
-8.09856
-8.10268
-8.10774
-8.11436
-8.12233
-8.13041
-8.13833
-8.14588
-8.15509
-8.17288
-8.19855
-8.22332
-8.24921
-8.27764
-8.30889
-8.34286
-8.37944
-8.41832
-8.45922
-8.50168
-8.54533
-8.58964
-8.63419
-8.67847
-8.72207
-8.76458
-8.80568
-8.84503
-8.88243
-8.91764
-8.95054
-8.98098
-9.00887
-9.03414
-9.05674
-9.07666
-9.09383
-9.10829
-9.12
-9.12901
-9.13529
-9.1389
-9.13981
-9.13811
-9.13376
-9.12685
-9.11736
-9.10541
-9.09095
-9.07415
-9.05495
-9.03355
-9.00988
-8.98418
-8.95638
-8.92673
-8.89517
-8.86197
-8.82707
-8.79077
-8.75296
-8.71396
-8.67371
-8.63253
-8.59027
-8.54723
-8.50327
-8.45875
-8.41343
-8.36756
-8.32089
-8.27368
-8.22556
-8.17671
-8.1267
-8.07531
-8.0217
-7.96582
-7.90748
-7.84628
-7.78149
-7.71239
-7.63829
-7.55843
-7.47202
-7.37815
-7.27584
-7.16393
-7.04136
-6.90681
-6.75903
-6.59646
-6.41777
-6.22146
-6.00637
-5.77113
-5.51444
-5.23483
-4.93143
-4.60331
-4.24954
-3.86918
-3.46191
-3.02745
-2.56565
-2.07677
-1.56152
-1.02086
-0.456111
0.131128
0.739041
1.36528
2.0071
2.66136
3.32468
3.99344
4.66397
5.33252
5.99539
6.649
7.28992
7.91497
8.52128
9.10626
9.66774
10.2039
10.7133
11.1951
11.6488
12.0742
12.4716
12.8416
13.1851
13.5031
13.7971
14.0678
14.316
14.5428
14.7494
14.9371
15.107
15.2605
15.3987
15.5231
15.6345
15.7343
15.8234
15.9027
15.9732
16.0357
16.0909
16.1396
16.1824
16.22
16.2529
16.2818
16.3071
16.3295
16.3495
16.3679
16.3855
16.4036
16.424
16.4494
16.4849
16.5357
16.6267
16.7405
-8.06575
-8.06648
-8.06697
-8.06947
-8.07247
-8.07478
-8.07638
-8.07743
-8.07799
-8.07812
-8.07806
-8.07815
-8.07899
-8.08094
-8.08404
-8.08866
-8.09501
-8.10255
-8.11101
-8.12026
-8.13103
-8.14565
-8.16534
-8.18801
-8.21373
-8.24264
-8.27463
-8.30938
-8.3466
-8.38586
-8.42682
-8.469
-8.51201
-8.55539
-8.59878
-8.64176
-8.684
-8.72516
-8.76497
-8.80316
-8.83952
-8.87385
-8.90602
-8.93588
-8.96332
-8.98828
-9.01067
-9.03045
-9.04759
-9.06205
-9.07382
-9.08292
-9.08931
-9.09303
-9.09407
-9.09248
-9.08823
-9.08139
-9.07195
-9.06
-9.04554
-9.02865
-9.00936
-8.98776
-8.9639
-8.93789
-8.90979
-8.87974
-8.84777
-8.81406
-8.77867
-8.74177
-8.70341
-8.66378
-8.62295
-8.58111
-8.53829
-8.49462
-8.45017
-8.40508
-8.35934
-8.31305
-8.26617
-8.21878
-8.17072
-8.122
-8.07243
-8.02165
-7.96917
-7.91474
-7.85837
-7.79957
-7.73753
-7.67172
-7.60129
-7.5256
-7.44369
-7.35472
-7.25756
-7.15116
-7.03432
-6.9058
-6.76434
-6.60842
-6.43678
-6.24793
-6.04085
-5.81405
-5.5664
-5.29637
-5.00306
-4.68524
-4.34207
-3.97258
-3.57644
-3.15321
-2.70281
-2.22534
-1.72147
-1.19199
-0.638209
-0.0614834
0.536398
1.15327
1.78651
2.43309
3.08975
3.75295
4.41909
5.08442
5.7453
6.39804
7.03923
7.66558
8.27419
8.86238
9.42795
9.96903
10.4842
10.9726
11.4336
11.8671
12.2732
12.6524
13.0054
13.3332
13.6366
13.9165
14.1735
14.409
14.6238
14.8193
14.9967
15.1572
15.3022
15.4329
15.5503
15.6556
15.7499
15.8341
15.9091
15.9758
16.0349
16.0873
16.1335
16.1743
16.2102
16.2418
16.2697
16.2945
16.3167
16.3372
16.3568
16.3767
16.3987
16.4249
16.4598
16.5062
16.5821
16.6584
-8.05097
-8.05498
-8.05885
-8.06314
-8.06689
-8.06936
-8.07059
-8.07079
-8.07016
-8.0689
-8.06736
-8.06598
-8.06531
-8.06573
-8.06754
-8.07103
-8.07651
-8.08396
-8.09341
-8.10487
-8.11864
-8.13527
-8.1552
-8.17822
-8.20428
-8.23327
-8.26504
-8.29931
-8.33583
-8.37421
-8.41414
-8.45518
-8.49698
-8.53914
-8.5813
-8.62306
-8.66412
-8.70413
-8.74285
-8.78
-8.8154
-8.84884
-8.88018
-8.90929
-8.93606
-8.9604
-8.98224
-9.00153
-9.01821
-9.03228
-9.04369
-9.05245
-9.05852
-9.06195
-9.06269
-9.0608
-9.05626
-9.04912
-9.03937
-9.02709
-9.01229
-8.99503
-8.97535
-8.95334
-8.92905
-8.90258
-8.874
-8.84343
-8.81095
-8.77671
-8.74079
-8.70336
-8.6645
-8.62438
-8.58312
-8.54086
-8.49769
-8.45374
-8.40911
-8.3639
-8.31815
-8.27194
-8.22529
-8.1782
-8.13063
-8.0825
-8.03369
-7.9839
-7.93262
-7.87988
-7.8254
-7.76871
-7.70921
-7.64621
-7.57906
-7.50694
-7.42903
-7.34434
-7.25184
-7.15039
-7.0388
-6.91583
-6.78009
-6.63024
-6.46487
-6.28272
-6.08256
-5.86308
-5.62296
-5.36089
-5.07569
-4.76618
-4.43138
-4.07052
-3.68306
-3.2686
-2.82697
-2.35827
-1.86301
-1.34197
-0.796338
-0.227412
0.363077
0.973041
1.59993
2.24082
2.89253
3.55159
4.21443
4.87733
5.53663
6.18864
6.82988
7.45707
8.06722
8.65768
9.22622
9.77104
10.2908
10.7845
11.2516
11.6918
12.1051
12.4918
12.8526
13.1881
13.4991
13.7863
14.0505
14.2929
14.5144
14.7164
14.9
15.0665
15.2172
15.3532
15.4756
15.5857
15.6844
15.7727
15.8516
15.9219
15.9844
16.0399
16.0891
16.1326
16.171
16.205
16.2351
16.2619
16.286
16.3082
16.3292
16.3503
16.3729
16.3989
16.4316
16.4715
16.5307
16.5742
-8.02851
-8.03618
-8.04472
-8.0519
-8.0573
-8.06078
-8.06258
-8.06308
-8.06259
-8.06141
-8.05996
-8.05869
-8.0581
-8.05864
-8.0607
-8.06455
-8.0705
-8.07866
-8.08917
-8.10213
-8.11773
-8.13612
-8.15742
-8.18156
-8.20851
-8.23811
-8.27022
-8.30455
-8.34086
-8.37879
-8.41802
-8.45817
-8.49892
-8.53986
-8.5807
-8.62107
-8.6607
-8.6993
-8.73661
-8.77241
-8.80651
-8.83873
-8.86892
-8.89695
-8.92272
-8.94614
-8.96711
-8.98561
-9.00155
-9.01492
-9.02567
-9.0338
-9.03926
-9.04209
-9.04225
-9.03976
-9.03463
-9.02688
-9.01651
-9.00359
-8.98813
-8.9702
-8.94983
-8.92711
-8.9021
-8.8749
-8.84557
-8.81426
-8.78104
-8.74606
-8.70944
-8.67132
-8.63184
-8.59115
-8.54939
-8.50671
-8.46324
-8.41911
-8.37444
-8.32934
-8.28387
-8.23811
-8.19209
-8.14581
-8.09923
-8.0523
-8.00489
-7.95669
-7.90745
-7.85675
-7.80481
-7.75079
-7.69429
-7.63452
-7.57097
-7.50272
-7.42903
-7.34882
-7.26113
-7.1648
-7.05858
-6.94126
-6.81129
-6.66749
-6.50826
-6.33261
-6.13894
-5.92622
-5.69278
-5.43763
-5.15922
-4.85662
-4.52858
-4.17461
-3.79384
-3.38604
-2.95078
-2.48831
-1.99889
-1.48341
-0.942842
-0.378567
0.207794
0.814108
1.43788
2.07625
2.726
3.38375
4.04585
4.70866
5.36838
6.02139
6.66408
7.29322
7.90573
8.49904
9.0709
9.61955
10.1436
10.642
11.1141
11.5595
11.9783
12.3706
12.7369
13.0778
13.3941
13.6865
13.9558
14.2031
14.4295
14.6361
14.8243
14.9952
15.15
15.29
15.4163
15.53
15.6321
15.7236
15.8055
15.8786
15.9437
16.0016
16.053
16.0985
16.1389
16.1746
16.2063
16.2346
16.26
16.2832
16.3051
16.3266
16.3489
16.3734
16.4026
16.4351
16.4789
16.4962
-8.00205
-8.01344
-8.02735
-8.03805
-8.04576
-8.05097
-8.05414
-8.05575
-8.05627
-8.05609
-8.05567
-8.05546
-8.05597
-8.05762
-8.06083
-8.0659
-8.07311
-8.08262
-8.09459
-8.10909
-8.12624
-8.14607
-8.16863
-8.19383
-8.22162
-8.25181
-8.28423
-8.3186
-8.35467
-8.39208
-8.43057
-8.46977
-8.50939
-8.54908
-8.58857
-8.62753
-8.66572
-8.70287
-8.73876
-8.77317
-8.80593
-8.83686
-8.86582
-8.89269
-8.91736
-8.93973
-8.95973
-8.97729
-8.99233
-9.00485
-9.01477
-9.02208
-9.02675
-9.02879
-9.02815
-9.02486
-9.0189
-9.01032
-8.9991
-8.9853
-8.96894
-8.95009
-8.92878
-8.9051
-8.87912
-8.85094
-8.82063
-8.78835
-8.75417
-8.71827
-8.68075
-8.64179
-8.60153
-8.56013
-8.51777
-8.47461
-8.43079
-8.38646
-8.34177
-8.29683
-8.25175
-8.2066
-8.16142
-8.11624
-8.07102
-8.02568
-7.98015
-7.93417
-7.8872
-7.83953
-7.7905
-7.7399
-7.68695
-7.63114
-7.57171
-7.50796
-7.43895
-7.36375
-7.28132
-7.19051
-7.09009
-6.97866
-6.85485
-6.71723
-6.5645
-6.39532
-6.20836
-6.0022
-5.77543
-5.52673
-5.25482
-4.95855
-4.63688
-4.28899
-3.91416
-3.51189
-3.0819
-2.62426
-2.13931
-1.62776
-1.09058
-0.52906
0.0551251
0.65985
1.28263
1.92056
2.57048
3.22895
3.8923
4.55683
5.21871
5.87425
6.51986
7.15224
7.76835
8.36557
8.94168
9.49482
10.0235
10.5267
11.0037
11.4539
11.8774
12.2744
12.6452
12.9905
13.3109
13.6073
13.8805
14.1316
14.3617
14.5719
14.7635
14.9377
15.0958
15.2389
15.3682
15.4847
15.5895
15.6837
15.768
15.8434
15.9106
15.9704
16.0235
16.0707
16.1125
16.1496
16.1825
16.2118
16.2381
16.2619
16.2841
16.3053
16.3267
16.349
16.3737
16.3986
16.4291
16.4255
-7.97589
-7.99059
-8.00959
-8.02376
-8.03396
-8.04128
-8.04629
-8.04955
-8.05163
-8.053
-8.05416
-8.05555
-8.05768
-8.06094
-8.06576
-8.07242
-8.08123
-8.09232
-8.10587
-8.12191
-8.14054
-8.16171
-8.18542
-8.21157
-8.24004
-8.27065
-8.30322
-8.33747
-8.37318
-8.41003
-8.44775
-8.48603
-8.52459
-8.56312
-8.60136
-8.63902
-8.67587
-8.71167
-8.74622
-8.7793
-8.81076
-8.84043
-8.86818
-8.89388
-8.91742
-8.93871
-8.95766
-8.97421
-8.98828
-8.99983
-9.0088
-9.01518
-9.01891
-9.02
-9.0184
-9.01413
-9.00717
-8.99755
-8.98527
-8.97038
-8.9529
-8.9329
-8.91042
-8.88555
-8.85836
-8.82898
-8.79747
-8.764
-8.72866
-8.69163
-8.65305
-8.61309
-8.57191
-8.52972
-8.48667
-8.44295
-8.39874
-8.35421
-8.30951
-8.26479
-8.22016
-8.17573
-8.13155
-8.08764
-8.04399
-8.00056
-7.95723
-7.91368
-7.86977
-7.82511
-7.77971
-7.73297
-7.68412
-7.63275
-7.57799
-7.51921
-7.45539
-7.38566
-7.30892
-7.22399
-7.12969
-7.02442
-6.90698
-6.77572
-6.62962
-6.46696
-6.28666
-6.08698
-5.86681
-5.62441
-5.35882
-5.06858
-4.75293
-4.41063
-4.04113
-3.6437
-3.21826
-2.76464
-2.28327
-1.77464
-1.23976
-0.679841
-0.096635
0.507763
1.13082
1.76964
2.42103
3.08144
3.74728
4.41465
5.0798
5.7389
6.38843
7.02498
7.64556
8.24747
8.82841
9.38647
9.92011
10.4282
10.9099
11.3649
11.7928
12.1941
12.569
12.9181
13.2421
13.5419
13.8184
14.0726
14.3057
14.5188
14.7132
14.8901
15.0508
15.1964
15.328
15.4469
15.5539
15.6502
15.7365
15.8138
15.8828
15.9443
15.999
16.0475
16.0906
16.1287
16.1625
16.1926
16.2193
16.2434
16.2655
16.286
16.3059
16.3255
16.3455
16.3629
16.3819
16.3614
-7.9536
-7.97101
-7.99421
-8.01134
-8.02383
-8.03327
-8.04026
-8.04538
-8.04925
-8.05241
-8.05537
-8.05858
-8.06253
-8.06759
-8.07416
-8.08251
-8.09293
-8.10556
-8.12056
-8.13796
-8.15783
-8.18009
-8.20472
-8.23158
-8.26056
-8.29144
-8.32406
-8.35814
-8.39348
-8.42977
-8.46677
-8.50418
-8.54176
-8.57921
-8.6163
-8.65276
-8.68839
-8.72295
-8.75626
-8.78812
-8.81838
-8.84687
-8.87348
-8.89806
-8.92052
-8.94075
-8.95867
-8.9742
-8.98727
-8.99782
-9.0058
-9.01117
-9.01387
-9.01391
-9.01123
-9.00586
-8.99775
-8.98695
-8.97343
-8.95727
-8.93848
-8.91713
-8.89326
-8.86699
-8.83838
-8.80757
-8.77465
-8.73978
-8.70309
-8.66475
-8.62493
-8.58382
-8.54161
-8.4985
-8.45468
-8.41038
-8.36576
-8.32104
-8.27638
-8.23195
-8.18789
-8.14431
-8.1013
-8.05887
-8.01705
-7.97576
-7.93491
-7.89428
-7.85346
-7.81256
-7.77109
-7.72854
-7.68433
-7.63777
-7.58821
-7.5348
-7.47666
-7.41281
-7.34215
-7.26351
-7.17551
-7.07676
-6.96575
-6.84115
-6.70155
-6.54559
-6.37178
-6.17868
-5.96484
-5.72879
-5.46917
-5.18481
-4.87461
-4.53751
-4.1727
-3.77963
-3.35802
-2.90777
-2.42914
-1.92262
-1.38912
-0.8299
-0.246719
0.358301
0.982593
1.62324
2.27698
2.94026
3.60937
4.28044
4.9496
5.61305
6.26719
6.90859
7.53417
8.14117
8.72723
9.29038
9.82902
10.342
10.8283
11.2877
11.72
12.1252
12.5037
12.8563
13.1835
13.4864
13.7657
14.0226
14.2583
14.4738
14.6706
14.8498
15.0126
15.1602
15.2939
15.4146
15.5235
15.6215
15.7096
15.7885
15.859
15.922
15.978
16.0277
16.0719
16.1109
16.1455
16.176
16.2031
16.2272
16.2487
16.2683
16.2864
16.303
16.3182
16.3284
16.3376
16.3035
-7.93762
-7.95704
-7.98316
-8.00245
-8.01679
-8.02807
-8.03688
-8.04378
-8.04941
-8.05434
-8.0591
-8.06411
-8.06984
-8.07662
-8.08486
-8.09478
-8.10668
-8.12066
-8.13689
-8.15538
-8.1762
-8.19925
-8.22451
-8.25182
-8.28106
-8.31203
-8.34456
-8.37838
-8.41329
-8.449
-8.48531
-8.52191
-8.55859
-8.59506
-8.63113
-8.66653
-8.70108
-8.73455
-8.76676
-8.79754
-8.82673
-8.85418
-8.87975
-8.90333
-8.92479
-8.94405
-8.96099
-8.97555
-8.98765
-8.99721
-9.00418
-9.00852
-9.01016
-9.00909
-9.00525
-8.99867
-8.9893
-8.97717
-8.96229
-8.94469
-8.92441
-8.90152
-8.87609
-8.84821
-8.81797
-8.78552
-8.75098
-8.71451
-8.67626
-8.63643
-8.5952
-8.55279
-8.5094
-8.46528
-8.42062
-8.37566
-8.33063
-8.28573
-8.24117
-8.19712
-8.15375
-8.11118
-8.06951
-8.0288
-7.98903
-7.95018
-7.91214
-7.87465
-7.83759
-7.80046
-7.76341
-7.72549
-7.68626
-7.64496
-7.60098
-7.55337
-7.50131
-7.44376
-7.37955
-7.30754
-7.22612
-7.1341
-7.02972
-6.91193
-6.77898
-6.6298
-6.46254
-6.27603
-6.06841
-5.83854
-5.58468
-5.30592
-5.00077
-4.66843
-4.30782
-3.91859
-3.50019
-3.05267
-2.57603
-2.07087
-1.53795
-0.978685
-0.394759
0.21162
0.83787
1.48105
2.13781
2.80462
3.47763
4.15305
4.82686
5.49529
6.15459
6.80132
7.43227
8.04464
8.63599
9.20428
9.74789
10.2656
10.7565
11.2201
11.6563
12.0651
12.4472
12.8028
13.133
13.4385
13.7203
13.9796
14.2175
14.4352
14.6339
14.815
14.9796
15.1291
15.2644
15.3868
15.4972
15.5967
15.6861
15.7664
15.8383
15.9025
15.9597
16.0105
16.0556
16.0955
16.1306
16.1616
16.1888
16.2126
16.2336
16.252
16.268
16.2814
16.292
16.2955
16.2961
16.2511
-7.92928
-7.94985
-7.97747
-7.99801
-8.0136
-8.02626
-8.03653
-8.04492
-8.05209
-8.05859
-8.06494
-8.07154
-8.07883
-8.08712
-8.09679
-8.10804
-8.12115
-8.1362
-8.15337
-8.17266
-8.19412
-8.21766
-8.24326
-8.27075
-8.30003
-8.33089
-8.36316
-8.39661
-8.43102
-8.46614
-8.50176
-8.5376
-8.57346
-8.60907
-8.64424
-8.67872
-8.71235
-8.74488
-8.77618
-8.80604
-8.83433
-8.86088
-8.88558
-8.90828
-8.92888
-8.94726
-8.96333
-8.97699
-8.98817
-8.99678
-9.00276
-9.00606
-9.00661
-9.00439
-8.99934
-8.99146
-8.98072
-8.96716
-8.95075
-8.93156
-8.90963
-8.88502
-8.85782
-8.82813
-8.79607
-8.76178
-8.72541
-8.68714
-8.64714
-8.60564
-8.56283
-8.51896
-8.47428
-8.42902
-8.38343
-8.33778
-8.29231
-8.24725
-8.20282
-8.15924
-8.11668
-8.07528
-8.03515
-7.99636
-7.95891
-7.92277
-7.88784
-7.85394
-7.82059
-7.78803
-7.75549
-7.72264
-7.6887
-7.65309
-7.615
-7.57361
-7.52798
-7.47706
-7.41968
-7.35444
-7.27995
-7.19468
-7.09729
-6.98631
-6.86035
-6.71787
-6.55734
-6.37717
-6.17584
-5.9518
-5.70363
-5.43001
-5.12969
-4.80159
-4.44486
-4.05889
-3.64327
-3.19785
-2.72266
-2.21823
-1.68539
-1.12554
-0.540389
0.0678238
0.696494
1.34262
2.00289
2.6737
3.3512
4.03149
4.71054
5.38444
6.04934
6.70172
7.3383
7.95619
8.55289
9.12632
9.6748
10.1971
10.6922
11.1598
11.5997
12.0121
12.3972
12.7557
13.0885
13.3964
13.6805
13.9418
14.1816
14.4012
14.6017
14.7844
14.9506
15.1016
15.2384
15.3622
15.4739
15.5747
15.6654
15.7468
15.8199
15.8852
15.9434
15.9952
16.0412
16.0817
16.1174
16.1487
16.1759
16.1995
16.2197
16.2367
16.2505
16.2608
16.2668
16.2643
16.2576
16.2037
-7.92878
-7.94966
-7.97735
-7.99826
-8.01447
-8.02794
-8.03918
-8.04865
-8.05698
-8.06469
-8.0723
-8.08015
-8.08869
-8.09817
-8.10894
-8.1212
-8.13518
-8.15099
-8.16877
-8.18853
-8.21032
-8.23407
-8.25973
-8.28716
-8.31626
-8.34683
-8.37872
-8.41168
-8.44554
-8.48005
-8.51499
-8.55013
-8.58524
-8.6201
-8.6545
-8.68822
-8.72108
-8.75286
-8.78341
-8.81253
-8.84009
-8.86592
-8.8899
-8.91188
-8.93175
-8.94939
-8.96469
-8.97755
-8.98788
-8.99559
-9.00061
-9.00287
-9.00231
-8.99889
-8.99255
-8.9833
-8.97108
-8.95594
-8.93787
-8.91693
-8.89316
-8.86665
-8.83748
-8.80578
-8.77168
-8.73535
-8.69694
-8.65667
-8.61473
-8.57137
-8.52683
-8.48137
-8.43525
-8.38877
-8.34219
-8.2958
-8.24987
-8.20468
-8.16045
-8.11743
-8.07579
-8.03572
-7.99732
-7.96067
-7.92579
-7.89263
-7.86112
-7.83095
-7.80202
-7.77389
-7.74643
-7.71894
-7.69064
-7.66099
-7.62912
-7.59423
-7.55533
-7.51126
-7.46089
-7.40257
-7.33513
-7.2568
-7.16652
-7.06245
-6.94348
-6.80765
-6.65375
-6.4798
-6.28456
-6.06614
-5.82338
-5.55461
-5.25881
-4.93465
-4.58149
-4.19846
-3.78529
-3.34158
-2.86753
-2.36351
-1.83053
-1.26986
-0.683284
-0.0729802
0.558425
1.2079
1.87213
2.54742
3.22993
3.91555
4.60027
5.27994
5.95074
6.60896
7.25129
7.87475
8.47676
9.05524
9.60843
10.1351
10.6343
11.1057
11.549
11.9645
12.3525
12.7137
13.0488
13.3589
13.6449
13.9081
14.1496
14.3708
14.5728
14.757
14.9246
15.0769
15.215
15.3401
15.453
15.5549
15.6467
15.7293
15.8033
15.8696
15.9288
15.9815
16.0282
16.0694
16.1055
16.137
16.1642
16.1873
16.2067
16.2223
16.234
16.2411
16.2429
16.2349
16.2218
16.1606
-7.93549
-7.95589
-7.98249
-8.00297
-8.01916
-8.03284
-8.04449
-8.05453
-8.06356
-8.07206
-8.0805
-8.08921
-8.09859
-8.10887
-8.12038
-8.13327
-8.14778
-8.164
-8.18207
-8.20199
-8.22382
-8.24748
-8.27296
-8.30011
-8.32884
-8.35897
-8.39034
-8.42274
-8.456
-8.48988
-8.52418
-8.55866
-8.59312
-8.62733
-8.6611
-8.69419
-8.72644
-8.75764
-8.78762
-8.81619
-8.84321
-8.8685
-8.89193
-8.91335
-8.93264
-8.94966
-8.9643
-8.97644
-8.98599
-8.99284
-8.99691
-8.99813
-8.99642
-8.99176
-8.98405
-8.97332
-8.9595
-8.94264
-8.92274
-8.89987
-8.87407
-8.84546
-8.81411
-8.78019
-8.74384
-8.70524
-8.66459
-8.62212
-8.57806
-8.53267
-8.48622
-8.43903
-8.39138
-8.34358
-8.29594
-8.24879
-8.20242
-8.15712
-8.11317
-8.0708
-8.03024
-7.99166
-7.95519
-7.9209
-7.88882
-7.85891
-7.83107
-7.80505
-7.78053
-7.75747
-7.73529
-7.71335
-7.691
-7.66751
-7.64212
-7.61393
-7.58189
-7.54488
-7.50148
-7.45032
-7.38984
-7.31869
-7.23534
-7.13834
-7.02608
-6.89699
-6.74939
-6.58168
-6.39219
-6.17935
-5.94167
-5.67772
-5.38623
-5.06606
-4.71631
-4.33626
-3.92538
-3.48336
-3.0103
-2.50663
-1.97332
-1.41161
-0.823279
-0.210506
0.424045
1.07733
1.74595
2.42616
3.114
3.8053
4.49589
5.18158
5.85838
6.52253
7.17058
7.79951
8.40672
8.99005
9.54774
10.0786
10.5816
11.0564
11.5029
11.9213
12.3119
12.6754
13.0126
13.3246
13.6124
13.8772
14.1203
14.3429
14.5463
14.7318
14.9007
15.0543
15.1935
15.3197
15.4338
15.5368
15.6296
15.7131
15.7881
15.8553
15.9154
15.9689
16.0163
16.058
16.0946
16.1262
16.1532
16.176
16.1944
16.2086
16.2182
16.2223
16.2202
16.2072
16.1887
16.1216
-7.94826
-7.96754
-7.99219
-8.01154
-8.02711
-8.0404
-8.05189
-8.06199
-8.07123
-8.08003
-8.08884
-8.09795
-8.10774
-8.1184
-8.13024
-8.14339
-8.15808
-8.17436
-8.1924
-8.21219
-8.23379
-8.25713
-8.2822
-8.30887
-8.33707
-8.36662
-8.39739
-8.42917
-8.4618
-8.49505
-8.52874
-8.56263
-8.59652
-8.63018
-8.66344
-8.69605
-8.72786
-8.75863
-8.78822
-8.8164
-8.84305
-8.86797
-8.89101
-8.91202
-8.93085
-8.94737
-8.96144
-8.97293
-8.98175
-8.98777
-8.99089
-8.99104
-8.98814
-8.98214
-8.97296
-8.96061
-8.94504
-8.92629
-8.90437
-8.87937
-8.85132
-8.82038
-8.78662
-8.75024
-8.71139
-8.67029
-8.62716
-8.58226
-8.53583
-8.48821
-8.43967
-8.39057
-8.34123
-8.29201
-8.24323
-8.19527
-8.14843
-8.10305
-8.05942
-8.0178
-7.97843
-7.9415
-7.90713
-7.87542
-7.84637
-7.81997
-7.79607
-7.77442
-7.75484
-7.73684
-7.72028
-7.70421
-7.68803
-7.67097
-7.65226
-7.63098
-7.60597
-7.57614
-7.53986
-7.49594
-7.44256
-7.37865
-7.30231
-7.21238
-7.10686
-6.98449
-6.84321
-6.68171
-6.49799
-6.29078
-6.0582
-5.7991
-5.51189
-5.19566
-4.84925
-4.47204
-4.06325
-3.62272
-3.15035
-2.64674
-2.11269
-1.54957
-0.959073
-0.343435
0.294647
0.952095
1.6254
2.3108
3.00411
3.70119
4.39769
5.08939
5.77214
6.4421
7.09574
7.72997
8.34214
8.93004
9.49196
10.0266
10.5332
11.0112
11.4606
11.8815
12.2744
12.64
12.9792
13.2929
13.5823
13.8485
14.093
14.3168
14.5215
14.7082
14.8783
15.0329
15.1733
15.3005
15.4157
15.5197
15.6135
15.698
15.7739
15.842
15.9029
15.9571
16.0052
16.0474
16.0843
16.1161
16.143
16.1652
16.1828
16.1956
16.2031
16.2045
16.1987
16.1814
16.158
16.0861
-7.96579
-7.98349
-8.00563
-8.02331
-8.03769
-8.05005
-8.06085
-8.07046
-8.07937
-8.08796
-8.09664
-8.10568
-8.11541
-8.12602
-8.13777
-8.15079
-8.16529
-8.18131
-8.19901
-8.21838
-8.23949
-8.26228
-8.28674
-8.31277
-8.3403
-8.36917
-8.39927
-8.43039
-8.46237
-8.495
-8.52809
-8.56141
-8.59481
-8.62802
-8.66088
-8.69315
-8.72465
-8.75515
-8.78449
-8.81245
-8.83887
-8.86355
-8.88634
-8.90704
-8.92551
-8.94159
-8.95514
-8.96602
-8.97409
-8.97924
-8.98134
-8.98032
-8.97608
-8.96857
-8.95772
-8.94354
-8.92598
-8.90509
-8.88089
-8.85347
-8.82289
-8.78929
-8.75281
-8.71363
-8.67196
-8.62803
-8.5821
-8.53447
-8.48542
-8.4353
-8.38445
-8.33324
-8.28206
-8.23128
-8.18129
-8.13247
-8.08518
-8.03977
-7.99655
-7.95583
-7.91782
-7.88276
-7.85075
-7.8219
-7.79622
-7.77365
-7.75404
-7.73722
-7.72265
-7.71047
-7.69974
-7.68995
-7.68028
-7.67001
-7.65831
-7.64418
-7.62655
-7.60401
-7.57522
-7.53856
-7.49264
-7.4359
-7.36687
-7.28388
-7.18533
-7.06951
-6.93472
-6.77925
-6.6014
-6.39954
-6.17205
-5.91747
-5.63445
-5.32184
-4.97857
-4.60379
-4.1968
-3.75729
-3.28529
-2.7813
-2.24615
-1.68119
-1.08818
-0.469367
0.17251
0.834269
1.51237
2.20293
2.90173
3.60447
4.30674
5.00421
5.69264
6.36807
7.02693
7.66605
8.28274
8.87479
9.44049
9.97859
10.4883
10.9691
11.421
11.8442
12.2392
12.6067
12.9475
13.2627
13.5535
13.8211
14.0667
14.2918
14.4976
14.6855
14.8566
15.0123
15.1538
15.282
15.3982
15.5032
15.598
15.6835
15.7603
15.8293
15.891
15.9459
15.9946
16.0373
16.0745
16.1064
16.1332
16.1549
16.1716
16.1831
16.1887
16.1875
16.1784
16.1572
16.1296
16.0539
-7.98675
-8.0026
-8.02193
-8.03751
-8.05025
-8.06116
-8.07073
-8.07932
-8.08735
-8.09518
-8.1032
-8.11165
-8.12084
-8.13093
-8.14217
-8.15465
-8.16857
-8.18397
-8.20101
-8.21968
-8.24004
-8.26206
-8.28573
-8.31096
-8.33768
-8.36575
-8.39506
-8.42543
-8.45671
-8.4887
-8.52122
-8.55404
-8.587
-8.61984
-8.65239
-8.6844
-8.7157
-8.74603
-8.77523
-8.80305
-8.82933
-8.85384
-8.87642
-8.89686
-8.91499
-8.93064
-8.94364
-8.95383
-8.96106
-8.96522
-8.96617
-8.96381
-8.95803
-8.9488
-8.93605
-8.91976
-8.89992
-8.87657
-8.84975
-8.81954
-8.78605
-8.74943
-8.70985
-8.66754
-8.62271
-8.57565
-8.52663
-8.476
-8.42409
-8.37128
-8.31796
-8.26453
-8.21143
-8.15907
-8.1079
-8.05828
-8.01065
-7.96536
-7.92278
-7.88319
-7.84686
-7.81398
-7.7847
-7.75911
-7.73718
-7.71879
-7.70402
-7.69224
-7.68356
-7.67722
-7.67292
-7.66975
-7.66694
-7.66375
-7.65934
-7.65259
-7.64247
-7.62739
-7.60614
-7.57685
-7.53838
-7.48882
-7.42698
-7.35085
-7.25912
-7.14969
-7.02119
-6.87151
-6.69929
-6.50249
-6.27978
-6.02941
-5.75026
-5.44089
-5.10039
-4.72759
-4.32199
-3.88308
-3.41108
-2.90634
-2.36983
-1.80283
-1.20721
-0.585222
0.0603877
0.726345
1.40908
2.10456
2.8086
3.51667
4.22432
4.92704
5.62058
6.30088
6.9643
7.60766
8.22821
8.8238
9.39269
9.93371
10.446
10.9293
11.3833
11.8084
12.2052
12.5742
12.9165
13.233
13.5251
13.7939
14.0407
14.2669
14.4738
14.6628
14.835
14.9918
15.1343
15.2636
15.3808
15.4869
15.5827
15.6692
15.747
15.8169
15.8794
15.935
15.9843
16.0275
16.065
16.097
16.1237
16.145
16.1609
16.1711
16.1749
16.1714
16.1594
16.1348
16.1035
16.0247
-8.01093
-8.02485
-8.0413
-8.05449
-8.06511
-8.07402
-8.08175
-8.08866
-8.09517
-8.10161
-8.10835
-8.11561
-8.12367
-8.13267
-8.14285
-8.15427
-8.16713
-8.18146
-8.1974
-8.21494
-8.23419
-8.25506
-8.2776
-8.30171
-8.32735
-8.35437
-8.38271
-8.41218
-8.44265
-8.47392
-8.50582
-8.53812
-8.57064
-8.60313
-8.63541
-8.66721
-8.69836
-8.72857
-8.75767
-8.78539
-8.81156
-8.8359
-8.85826
-8.87838
-8.89611
-8.91122
-8.92356
-8.93293
-8.93918
-8.94216
-8.94174
-8.93781
-8.93026
-8.91905
-8.9041
-8.88541
-8.86297
-8.83684
-8.80705
-8.77374
-8.73701
-8.69707
-8.65409
-8.60834
-8.56005
-8.50958
-8.45722
-8.40339
-8.34845
-8.29284
-8.23697
-8.18132
-8.12632
-8.07249
-8.02021
-7.96997
-7.92229
-7.87737
-7.8358
-7.79766
-7.76347
-7.73316
-7.70713
-7.68518
-7.66747
-7.65399
-7.6443
-7.6384
-7.63565
-7.63585
-7.63824
-7.64198
-7.64632
-7.65048
-7.65349
-7.65433
-7.65167
-7.64423
-7.63034
-7.60854
-7.57721
-7.53486
-7.47982
-7.4105
-7.32513
-7.22199
-7.09927
-6.95524
-6.78812
-6.59618
-6.37775
-6.13135
-5.8556
-5.54919
-5.21094
-4.83985
-4.43525
-3.9968
-3.52461
-3.01914
-2.48134
-1.91249
-1.31447
-0.689555
-0.0405358