/*--------------------------------*- C++ -*----------------------------------*\
| =========                 |                                                 |
| \\      /  F ield         | OpenFOAM: The Open Source CFD Toolbox           |
|  \\    /   O peration     | Version:  5.0                                   |
|   \\  /    A nd           | Web:      www.OpenFOAM.org                      |
|    \\/     M anipulation  |                                                 |
\*---------------------------------------------------------------------------*/
FoamFile
{
    version     2.0;
    format      ascii;
    class       surfaceScalarField;
    location    "100";
    object      phi;
}
// * * * * * * * * * * * * * * * * * * * * * * * * * * * * * * * * * * * * * //

dimensions      [0 3 -1 0 0 0 0];

internalField   nonuniform List<scalar> 
24170
(
3.129e-06
5.94063e-08
3.0466e-06
8.23995e-08
2.97347e-06
7.3124e-08
2.90478e-06
6.86828e-08
2.84038e-06
6.44002e-08
2.78294e-06
5.74273e-08
2.73349e-06
4.9447e-08
2.69137e-06
4.21152e-08
2.65548e-06
3.58882e-08
2.62474e-06
3.07352e-08
2.59814e-06
2.65931e-08
2.57479e-06
2.3346e-08
2.55393e-06
2.08543e-08
2.53481e-06
1.911e-08
2.51674e-06
1.80667e-08
2.49766e-06
1.90791e-08
2.47732e-06
2.03383e-08
3.97706e-08
2.43755e-06
3.45306e-06
2.35928e-08
3.457e-06
7.84611e-08
3.45052e-06
7.95983e-08
3.43904e-06
8.01599e-08
3.42422e-06
7.92114e-08
3.40693e-06
7.47164e-08
3.38764e-06
6.87361e-08
3.36701e-06
6.27326e-08
3.34574e-06
5.71587e-08
3.32439e-06
5.20785e-08
3.30344e-06
4.75419e-08
3.28313e-06
4.36437e-08
3.26365e-06
4.03294e-08
3.24497e-06
3.7792e-08
3.22718e-06
3.58472e-08
3.21007e-06
3.61934e-08
3.19419e-06
3.62137e-08
4.86477e-08
3.18531e-06
3.66815e-06
1.79551e-08
3.67918e-06
6.74292e-08
3.68539e-06
7.33888e-08
3.68939e-06
7.61532e-08
3.69095e-06
7.76518e-08
3.68993e-06
7.57343e-08
3.68672e-06
7.1943e-08
3.68178e-06
6.76673e-08
3.6755e-06
6.34357e-08
3.66819e-06
5.93842e-08
3.66011e-06
5.56126e-08
3.6515e-06
5.22543e-08
3.6425e-06
4.9326e-08
3.63322e-06
4.70622e-08
3.62367e-06
4.54001e-08
3.61432e-06
4.55387e-08
3.60429e-06
4.62414e-08
5.25927e-08
3.60034e-06
3.92584e-06
1.75009e-08
3.9359e-06
5.73723e-08
3.94252e-06
6.67598e-08
3.94803e-06
7.06455e-08
3.9524e-06
7.32819e-08
3.95528e-06
7.2846e-08
3.95687e-06
7.03501e-08
3.9574e-06
6.71341e-08
3.95705e-06
6.37785e-08
3.95597e-06
6.04664e-08
3.95426e-06
5.73111e-08
3.95205e-06
5.44644e-08
3.94939e-06
5.19791e-08
3.94638e-06
5.00693e-08
3.94302e-06
4.87593e-08
3.93979e-06
4.87635e-08
3.93649e-06
4.95451e-08
5.26818e-08
3.9364e-06
4.20819e-06
1.6435e-08
4.21596e-06
4.96019e-08
4.22163e-06
6.10866e-08
4.2267e-06
6.55764e-08
4.23139e-06
6.85823e-08
4.2353e-06
6.89388e-08
4.23838e-06
6.72642e-08
4.24075e-06
6.47626e-08
4.2425e-06
6.20206e-08
4.24373e-06
5.92416e-08
4.24449e-06
5.65479e-08
4.24486e-06
5.40898e-08
4.24489e-06
5.19465e-08
4.24466e-06
5.02895e-08
4.24424e-06
4.91777e-08
4.24402e-06
4.89884e-08
4.24412e-06
4.94397e-08
5.08041e-08
4.24599e-06
4.5107e-06
1.48192e-08
4.51686e-06
4.34449e-08
4.52208e-06
5.5865e-08
4.52685e-06
6.07983e-08
4.53151e-06
6.39214e-08
4.53569e-06
6.47574e-08
4.53928e-06
6.36756e-08
4.54233e-06
6.17086e-08
4.54491e-06
5.94314e-08
4.54709e-06
5.70605e-08
4.54891e-06
5.47278e-08
4.55042e-06
5.25733e-08
4.55168e-06
5.0689e-08
4.55276e-06
4.92018e-08
4.55377e-06
4.81683e-08
4.555e-06
4.77553e-08
4.55667e-06
4.77634e-08
4.80128e-08
4.55946e-06
4.83432e-06
1.32161e-08
4.8396e-06
3.81629e-08
4.8447e-06
5.07676e-08
4.84936e-06
5.61343e-08
4.85393e-06
5.93414e-08
4.85818e-06
6.05085e-08
4.86196e-06
5.98893e-08
4.86532e-06
5.83499e-08
4.8683e-06
5.64457e-08
4.87096e-06
5.44042e-08
4.87332e-06
5.23634e-08
4.87544e-06
5.04517e-08
4.87736e-06
4.87612e-08
4.87918e-06
4.73813e-08
4.881e-06
4.63491e-08
4.88304e-06
4.57091e-08
4.88551e-06
4.52912e-08
4.48069e-08
4.88871e-06
5.18104e-06
1.17571e-08
5.18573e-06
3.34729e-08
5.1907e-06
4.57932e-08
5.19531e-06
5.15231e-08
5.19984e-06
5.48093e-08
5.20413e-06
5.62175e-08
5.20803e-06
5.59776e-08
5.21158e-06
5.48016e-08
5.21481e-06
5.32143e-08
5.21776e-06
5.14523e-08
5.22046e-06
4.96558e-08
5.22297e-06
4.79422e-08
5.22533e-06
4.63963e-08
5.22763e-06
4.5079e-08
5.22997e-06
4.40054e-08
5.23252e-06
4.31564e-08
5.23543e-06
4.23819e-08
4.14177e-08
5.23882e-06
5.55268e-06
1.04091e-08
5.55686e-06
2.92914e-08
5.56164e-06
4.10127e-08
5.56621e-06
4.69537e-08
5.57072e-06
5.02969e-08
5.57505e-06
5.1878e-08
5.57908e-06
5.19526e-08
5.58278e-06
5.10959e-08
5.5862e-06
4.97883e-08
5.58938e-06
4.8272e-08
5.59235e-06
4.66862e-08
5.59515e-06
4.51382e-08
5.59784e-06
4.37025e-08
5.6005e-06
4.242e-08
5.60321e-06
4.12891e-08
5.6061e-06
4.02643e-08
5.60926e-06
3.92193e-08
3.79506e-08
5.61272e-06
5.95103e-06
9.15337e-09
5.95476e-06
2.55587e-08
5.95931e-06
3.64654e-08
5.96382e-06
4.24359e-08
5.96832e-06
4.57989e-08
5.9727e-06
4.74944e-08
5.97683e-06
4.78219e-08
5.98067e-06
4.72434e-08
5.98428e-06
4.61848e-08
5.98766e-06
4.48871e-08
5.99085e-06
4.34867e-08
5.99391e-06
4.20808e-08
5.99688e-06
4.07336e-08
5.99982e-06
3.94733e-08
6.00282e-06
3.82895e-08
6.00595e-06
3.71317e-08
6.00926e-06
3.59007e-08
3.44571e-08
6.01275e-06
6.37798e-06
7.98917e-09
6.38132e-06
2.22083e-08
6.38563e-06
3.216e-08
6.39007e-06
3.79841e-08
6.39455e-06
4.13187e-08
6.39897e-06
4.30761e-08
6.40319e-06
4.35946e-08
6.40718e-06
4.32506e-08
6.41095e-06
4.24115e-08
6.41453e-06
4.13081e-08
6.41794e-06
4.00722e-08
6.42122e-06
3.87915e-08
6.42443e-06
3.75213e-08
6.42762e-06
3.62824e-08
6.43085e-06
3.50633e-08
6.43416e-06
3.38195e-08
6.43758e-06
3.24802e-08
3.09562e-08
6.44107e-06
5.74175e-06
7.06891e-09
5.74432e-06
1.9635e-08
5.74777e-06
2.87078e-08
5.75147e-06
3.42814e-08
5.75524e-06
3.75484e-08
5.75899e-06
3.9322e-08
5.76263e-06
3.99545e-08
5.7661e-06
3.97726e-08
5.76942e-06
3.90957e-08
5.77258e-06
3.81387e-08
5.77563e-06
3.7028e-08
5.77857e-06
3.5844e-08
5.78145e-06
3.46353e-08
5.78431e-06
3.34212e-08
5.78718e-06
3.21909e-08
5.79009e-06
3.09111e-08
5.79304e-06
2.95302e-08
2.7996e-08
5.79599e-06
6.99913e-06
6.09246e-09
7.00185e-06
1.69093e-08
7.0056e-06
2.4959e-08
7.00974e-06
3.01378e-08
7.01403e-06
3.32573e-08
7.01835e-06
3.50011e-08
7.02258e-06
3.5715e-08
7.02667e-06
3.56785e-08
7.03061e-06
3.51588e-08
7.03439e-06
3.43496e-08
7.03805e-06
3.33683e-08
7.04161e-06
3.22876e-08
7.04509e-06
3.1151e-08
7.04853e-06
2.99762e-08
7.05196e-06
2.87587e-08
7.05539e-06
2.74766e-08
7.05882e-06
2.60997e-08
2.4601e-08
7.06221e-06
8.53187e-06
5.06623e-09
8.53472e-06
1.4058e-08
8.53874e-06
2.09392e-08
8.54332e-06
2.55566e-08
8.54815e-06
2.84227e-08
8.55308e-06
3.00692e-08
8.55797e-06
3.08142e-08
8.56276e-06
3.089e-08
8.5674e-06
3.05125e-08
8.5719e-06
2.98455e-08
8.57627e-06
2.89962e-08
8.58053e-06
2.80273e-08
8.5847e-06
2.69789e-08
8.58881e-06
2.58683e-08
8.59286e-06
2.46988e-08
8.59688e-06
2.34605e-08
8.60083e-06
2.21411e-08
2.07319e-08
8.6047e-06
1.04003e-05
3.99851e-09
1.04032e-05
1.1099e-08
1.04075e-05
1.66667e-08
1.04125e-05
2.05424e-08
1.04179e-05
2.30212e-08
1.04235e-05
2.44822e-08
1.04291e-05
2.51877e-08
1.04347e-05
2.53275e-08
1.04401e-05
2.50637e-08
1.04454e-05
2.4529e-08
1.04506e-05
2.38109e-08
1.04557e-05
2.29671e-08
1.04606e-05
2.20295e-08
1.04655e-05
2.10194e-08
1.04702e-05
1.99435e-08
1.04749e-05
1.8805e-08
1.04794e-05
1.76023e-08
1.63394e-08
1.04838e-05
1.26779e-05
2.89235e-09
1.2681e-05
8.02514e-09
1.26855e-05
1.21364e-08
1.26909e-05
1.50831e-08
1.26969e-05
1.70186e-08
1.27032e-05
1.81812e-08
1.27097e-05
1.87627e-08
1.27161e-05
1.89021e-08
1.27224e-05
1.87153e-08
1.27287e-05
1.82955e-08
1.27348e-05
1.77122e-08
1.27407e-05
1.70089e-08
1.27465e-05
1.62155e-08
1.27522e-05
1.5349e-08
1.27577e-05
1.44229e-08
1.27631e-05
1.34442e-08
1.27682e-05
1.24213e-08
1.136e-08
1.27732e-05
1.54543e-05
1.73567e-09
1.54576e-05
4.78793e-09
1.54624e-05
7.2866e-09
1.54684e-05
9.11358e-09
1.54751e-05
1.03332e-08
1.54822e-05
1.1069e-08
1.54895e-05
1.14303e-08
1.54969e-05
1.1501e-08
1.55043e-05
1.13489e-08
1.55115e-05
1.10299e-08
1.55186e-05
1.05869e-08
1.55256e-05
1.00502e-08
1.55324e-05
9.43997e-09
1.55389e-05
8.77104e-09
1.55453e-05
8.05465e-09
1.55515e-05
7.30098e-09
1.55574e-05
6.51952e-09
5.71725e-09
1.5563e-05
1.88389e-05
4.86687e-10
1.88424e-05
1.26202e-09
1.88477e-05
1.94136e-09
1.88544e-05
2.43929e-09
1.8862e-05
2.76369e-09
1.88701e-05
2.9406e-09
1.88785e-05
2.99083e-09
1.88871e-05
2.93381e-09
1.88957e-05
2.78727e-09
1.89041e-05
2.56716e-09
1.89124e-05
2.28556e-09
1.89205e-05
1.9533e-09
1.89284e-05
1.57828e-09
1.8936e-05
1.16782e-09
1.89433e-05
7.28125e-10
1.89503e-05
2.66348e-10
1.89571e-05
-2.09945e-10
-6.96826e-10
1.89635e-05
2.29648e-05
-9.58387e-10
2.29689e-05
-2.8408e-09
2.29751e-05
-4.31711e-09
2.2983e-05
-5.41472e-09
2.29919e-05
-6.16414e-09
2.30015e-05
-6.65606e-09
2.30115e-05
-6.97565e-09
2.30216e-05
-7.18146e-09
2.30317e-05
-7.30815e-09
2.30416e-05
-7.39147e-09
2.30514e-05
-7.45383e-09
2.30608e-05
-7.51399e-09
2.307e-05
-7.57738e-09
2.30788e-05
-7.65088e-09
2.30872e-05
-7.73354e-09
2.30953e-05
-7.82777e-09
2.3103e-05
-7.92829e-09
-8.03816e-09
2.31104e-05
1.68118e-05
-2.09418e-09
1.6815e-05
-6.03282e-09
1.68199e-05
-9.18684e-09
1.68259e-05
-1.14701e-08
1.68327e-05
-1.29549e-08
1.68399e-05
-1.38676e-08
1.68474e-05
-1.44007e-08
1.68548e-05
-1.46541e-08
1.68622e-05
-1.47127e-08
1.68695e-05
-1.4643e-08
1.68765e-05
-1.45039e-08
1.68833e-05
-1.43249e-08
1.68899e-05
-1.41309e-08
1.68962e-05
-1.39304e-08
1.69022e-05
-1.37354e-08
1.69079e-05
-1.3546e-08
1.69133e-05
-1.33668e-08
-1.31963e-08
1.69185e-05
1.46357e-05
-3.18404e-09
1.46388e-05
-9.13754e-09
1.46435e-05
-1.39329e-08
1.46493e-05
-1.7263e-08
1.46556e-05
-1.93057e-08
1.46623e-05
-2.05143e-08
1.4669e-05
-2.11563e-08
1.46758e-05
-2.13733e-08
1.46823e-05
-2.12925e-08
1.46887e-05
-2.10332e-08
1.46949e-05
-2.0669e-08
1.47008e-05
-2.02474e-08
1.47065e-05
-1.97959e-08
1.47119e-05
-1.93361e-08
1.4717e-05
-1.88792e-08
1.47219e-05
-1.84339e-08
1.47265e-05
-1.80009e-08
-1.75856e-08
1.47309e-05
1.27412e-05
-4.20409e-09
1.27443e-05
-1.22789e-08
1.27491e-05
-1.87904e-08
1.27548e-05
-2.29487e-08
1.27609e-05
-2.53394e-08
1.27671e-05
-2.67364e-08
1.27733e-05
-2.74042e-08
1.27794e-05
-2.7492e-08
1.27853e-05
-2.72077e-08
1.2791e-05
-2.67162e-08
1.27965e-05
-2.61073e-08
1.28017e-05
-2.54339e-08
1.28066e-05
-2.47297e-08
1.28113e-05
-2.40222e-08
1.28157e-05
-2.33229e-08
1.28199e-05
-2.26437e-08
1.28239e-05
-2.19837e-08
-2.1349e-08
1.28277e-05
1.10918e-05
-5.05682e-09
1.1095e-05
-1.55119e-08
1.11002e-05
-2.39381e-08
1.11058e-05
-2.86067e-08
1.11116e-05
-3.11176e-08
1.11174e-05
-3.26018e-08
1.11232e-05
-3.31916e-08
1.11288e-05
-3.30694e-08
1.11341e-05
-3.2537e-08
1.11392e-05
-3.17917e-08
1.1144e-05
-3.09269e-08
1.11486e-05
-2.99974e-08
1.11529e-05
-2.90478e-08
1.1157e-05
-2.81023e-08
1.11608e-05
-2.71804e-08
1.11645e-05
-2.62853e-08
1.11679e-05
-2.54231e-08
-2.45927e-08
1.11712e-05
9.65583e-06
-5.67167e-09
9.65926e-06
-1.89449e-08
9.66462e-06
-2.93016e-08
9.67014e-06
-3.41314e-08
9.67573e-06
-3.67117e-08
9.68133e-06
-3.82027e-08
9.68671e-06
-3.85715e-08
9.69178e-06
-3.81484e-08
9.69658e-06
-3.73355e-08
9.70111e-06
-3.63274e-08
9.70539e-06
-3.52035e-08
9.70941e-06
-3.40225e-08
9.71319e-06
-3.28309e-08
9.71675e-06
-3.16594e-08
9.72009e-06
-3.05215e-08
9.72323e-06
-2.94251e-08
9.72617e-06
-2.83702e-08
-2.73554e-08
9.72893e-06
8.40533e-06
-5.64877e-09
8.40965e-06
-2.32678e-08
8.4149e-06
-3.45521e-08
8.41994e-06
-3.91817e-08
8.42534e-06
-4.2107e-08
8.43078e-06
-4.36456e-08
8.4359e-06
-4.36957e-08
8.44064e-06
-4.28955e-08
8.44505e-06
-4.1747e-08
8.44915e-06
-4.04271e-08
8.45295e-06
-3.90053e-08
8.45647e-06
-3.75434e-08
8.45973e-06
-3.60903e-08
8.46274e-06
-3.46741e-08
8.46553e-06
-3.33099e-08
8.4681e-06
-3.20036e-08
8.47049e-06
-3.07554e-08
-2.95655e-08
8.47269e-06
7.31455e-06
-2.9164e-09
7.3212e-06
-2.9918e-08
7.32676e-06
-4.01169e-08
7.33173e-06
-4.41528e-08
7.33715e-06
-4.75282e-08
7.3425e-06
-4.89948e-08
7.3474e-06
-4.86051e-08
7.35185e-06
-4.73418e-08
7.35586e-06
-4.57592e-08
7.35944e-06
-4.40163e-08
7.36263e-06
-4.21947e-08
7.36545e-06
-4.03637e-08
7.36794e-06
-3.85788e-08
7.37012e-06
-3.68629e-08
7.37204e-06
-3.52308e-08
7.37372e-06
-3.36856e-08
7.37519e-06
-3.22263e-08
-3.08457e-08
7.37647e-06
6.36245e-06
4.69474e-09
6.3719e-06
-3.93657e-08
6.37934e-06
-4.75556e-08
6.38599e-06
-5.08089e-08
6.39229e-06
-5.38301e-08
6.39762e-06
-5.43306e-08
6.40194e-06
-5.29251e-08
6.40545e-06
-5.0849e-08
6.40827e-06
-4.85861e-08
6.41048e-06
-4.62285e-08
6.41214e-06
-4.38509e-08
6.4133e-06
-4.15338e-08
6.41405e-06
-3.93255e-08
6.41443e-06
-3.72448e-08
6.4145e-06
-3.53049e-08
6.41432e-06
-3.35021e-08
6.41392e-06
-3.18373e-08
-3.02884e-08
6.41337e-06
5.54121e-06
8.95362e-09
5.55033e-06
-4.8494e-08
5.55836e-06
-5.55819e-08
5.56607e-06
-5.85234e-08
5.57254e-06
-6.03072e-08
5.57688e-06
-5.86734e-08
5.57914e-06
-5.51865e-08
5.57972e-06
-5.14293e-08
5.57898e-06
-4.78541e-08
5.57722e-06
-4.44635e-08
5.57464e-06
-4.12773e-08
5.57145e-06
-3.83383e-08
5.56777e-06
-3.56541e-08
5.56374e-06
-3.32159e-08
5.55945e-06
-3.10208e-08
5.555e-06
-2.90522e-08
5.55047e-06
-2.73094e-08
-2.57458e-08
5.54593e-06
4.86004e-06
-2.34837e-08
4.86539e-06
-5.38394e-08
4.86524e-06
-5.54411e-08
4.86218e-06
-5.54615e-08
4.85702e-06
-5.5148e-08
4.84953e-06
-5.11864e-08
4.83984e-06
-4.55059e-08
4.82846e-06
-4.00534e-08
4.81591e-06
-3.52988e-08
4.80264e-06
-3.12033e-08
4.78906e-06
-2.76976e-08
4.77544e-06
-2.47192e-08
4.76197e-06
-2.21876e-08
4.74879e-06
-2.00326e-08
4.73597e-06
-1.82076e-08
4.72359e-06
-1.66792e-08
4.71177e-06
-1.54847e-08
-1.51446e-08
4.70117e-06
4.17919e-06
4.12535e-06
4.06991e-06
4.01445e-06
3.9593e-06
3.90811e-06
3.86261e-06
3.82255e-06
3.78726e-06
3.75605e-06
3.72835e-06
3.70363e-06
3.68145e-06
3.66141e-06
3.6432e-06
3.62653e-06
3.61104e-06
3.59589e-06
2.06342e-08
-2.07532e-08
4.46401e-08
-2.4112e-08
6.40896e-08
-1.95665e-08
7.77819e-08
-1.37581e-08
8.50931e-08
-7.41059e-09
8.61098e-08
-1.07199e-09
8.11822e-08
4.83349e-09
7.11394e-08
9.99278e-09
5.67798e-08
1.42714e-08
3.89888e-08
1.77427e-08
1.80676e-08
2.08233e-08
-5.9912e-09
2.3989e-08
-3.0677e-08
2.44912e-08
-5.30059e-08
2.22183e-08
-7.64396e-08
2.32226e-08
-1.0203e-07
2.55102e-08
-1.30819e-07
2.85855e-08
-1.63707e-07
3.28261e-08
-2.02598e-07
3.87054e-08
-2.49093e-07
4.64564e-08
-3.02666e-07
5.34072e-08
-3.58796e-07
5.61126e-08
-4.16559e-07
5.76208e-08
-4.77653e-07
6.10871e-08
-5.41253e-07
6.34663e-08
-6.06739e-07
6.54756e-08
-6.74067e-07
6.71871e-08
-7.42562e-07
6.84747e-08
-8.11947e-07
6.92462e-08
-8.81469e-07
6.94924e-08
-9.50847e-07
6.92289e-08
-1.0194e-06
6.85163e-08
-1.08696e-06
6.74051e-08
-1.15298e-06
6.59719e-08
-1.21741e-06
6.42741e-08
-1.27986e-06
6.23898e-08
-1.34038e-06
6.03688e-08
-1.39871e-06
5.82776e-08
-1.455e-06
5.61496e-08
-1.50907e-06
5.40353e-08
-1.56115e-06
5.19513e-08
-1.61112e-06
4.9933e-08
-1.65922e-06
4.79831e-08
-1.70538e-06
4.61263e-08
-1.74985e-06
4.43548e-08
-1.79257e-06
4.26855e-08
-1.83378e-06
4.11035e-08
-1.87344e-06
3.96215e-08
-1.91177e-06
3.82219e-08
-1.94872e-06
3.69158e-08
-1.98451e-06
3.56824e-08
-2.01908e-06
3.45322e-08
-2.05262e-06
3.34454e-08
-2.08511e-06
3.24318e-08
-2.11669e-06
3.1472e-08
-2.14734e-06
3.05781e-08
-2.1772e-06
2.97322e-08
-2.20623e-06
2.89466e-08
-2.23457e-06
2.82045e-08
-2.2622e-06
2.75198e-08
-2.28922e-06
2.68767e-08
-2.31563e-06
2.62886e-08
-2.34152e-06
2.57421e-08
-2.3669e-06
2.52509e-08
-2.39185e-06
2.48027e-08
-2.4164e-06
2.44097e-08
-2.44061e-06
2.40627e-08
-2.46452e-06
2.37723e-08
-2.48818e-06
2.35314e-08
-2.51166e-06
2.33476e-08
-2.53498e-06
2.32168e-08
-2.55827e-06
2.31441e-08
-2.58149e-06
2.3128e-08
-2.6048e-06
2.31671e-08
-2.62815e-06
2.32629e-08
-2.65173e-06
2.34091e-08
-2.67546e-06
2.36103e-08
-2.6995e-06
2.3861e-08
-2.72377e-06
2.41651e-08
-2.74848e-06
2.45035e-08
-2.77347e-06
2.48847e-08
-2.79897e-06
2.52901e-08
-2.82479e-06
2.57283e-08
-2.85116e-06
2.6163e-08
-2.87787e-06
2.66071e-08
-2.90509e-06
2.70246e-08
-2.93258e-06
2.74418e-08
-2.96045e-06
2.78222e-08
-2.98852e-06
2.81806e-08
-3.01676e-06
2.84974e-08
-3.04526e-06
2.87009e-08
-3.07388e-06
2.8771e-08
-3.10246e-06
2.86853e-08
-3.13079e-06
2.84359e-08
-3.15871e-06
2.8e-08
-3.18599e-06
2.73582e-08
-3.21243e-06
2.64795e-08
-3.23774e-06
2.53367e-08
-3.26169e-06
2.39212e-08
-3.28398e-06
2.22328e-08
-3.30431e-06
2.01988e-08
-3.32228e-06
1.77406e-08
-3.33748e-06
1.48786e-08
-3.3495e-06
1.15656e-08
-3.35777e-06
7.80469e-09
-3.36199e-06
3.68025e-09
-3.36202e-06
-4.41043e-10
-3.3578e-06
-4.71454e-09
-3.34934e-06
-8.85319e-09
-3.33716e-06
-1.25888e-08
-3.32068e-06
-1.67704e-08
-3.29915e-06
-2.18485e-08
-3.27239e-06
-2.69507e-08
-3.24097e-06
-3.16245e-08
-3.20422e-06
-3.68453e-08
-3.16165e-06
-4.2681e-08
-3.11363e-06
-4.80149e-08
-3.06004e-06
-5.3564e-08
-3.00038e-06
-5.95144e-08
-2.93496e-06
-6.53046e-08
-2.86386e-06
-7.10096e-08
-2.78705e-06
-7.68726e-08
-2.7045e-06
-8.25958e-08
-2.61633e-06
-8.82288e-08
-2.5226e-06
-9.36385e-08
-2.42359e-06
-9.8859e-08
-2.3195e-06
-1.038e-07
-2.21069e-06
-1.08475e-07
-2.09744e-06
-1.12803e-07
-1.98019e-06
-1.16787e-07
-1.8593e-06
-1.20364e-07
-1.73524e-06
-1.23531e-07
-1.60844e-06
-1.26245e-07
-1.47939e-06
-1.28505e-07
-1.34856e-06
-1.30297e-07
-1.21642e-06
-1.31635e-07
-1.08341e-06
-1.32529e-07
-9.49974e-07
-1.33e-07
-8.16525e-07
-1.33073e-07
-6.83459e-07
-1.32769e-07
-5.51112e-07
-1.32105e-07
-4.19895e-07
-1.31056e-07
-2.89868e-07
-1.29917e-07
-1.60493e-07
-1.29335e-07
-3.07833e-08
-1.29708e-07
9.90173e-08
-1.29847e-07
2.26778e-07
-1.27821e-07
3.50948e-07
-1.24258e-07
4.70992e-07
-1.20132e-07
5.86628e-07
-1.15737e-07
6.97749e-07
-1.1122e-07
8.0429e-07
-1.06643e-07
9.06258e-07
-1.02067e-07
1.00371e-06
-9.75458e-08
1.09672e-06
-9.31091e-08
1.18538e-06
-8.87449e-08
1.26981e-06
-8.45127e-08
1.35016e-06
-8.04331e-08
1.42656e-06
-7.64786e-08
1.49914e-06
-7.2642e-08
1.56802e-06
-6.89452e-08
1.63336e-06
-6.53984e-08
1.69531e-06
-6.20056e-08
1.754e-06
-5.87372e-08
1.80954e-06
-5.55907e-08
1.86207e-06
-5.25599e-08
1.91167e-06
-4.96444e-08
1.95846e-06
-4.68199e-08
2.00251e-06
-4.40812e-08
2.04387e-06
-4.13921e-08
2.08255e-06
-3.87085e-08
2.11848e-06
-3.59562e-08
2.15148e-06
-3.30329e-08
2.18121e-06
-2.9753e-08
2.20695e-06
-2.57731e-08
2.22739e-06
-2.04685e-08
2.23869e-06
-1.13414e-08
2.23167e-06
6.98421e-09
2.18428e-06
4.73625e-08
1.16109e-07
2.06815e-06
2.10765e-08
-4.19274e-08
3.45667e-08
-3.76805e-08
4.12021e-08
-2.62687e-08
4.28962e-08
-1.54938e-08
4.04539e-08
-5.02088e-09
3.42512e-08
5.09495e-09
2.43738e-08
1.46601e-08
1.08115e-08
2.35205e-08
-6.59714e-09
3.16292e-08
-2.80085e-08
3.91174e-08
-5.35061e-08
4.62652e-08
-8.27937e-08
5.32318e-08
-1.17701e-07
5.93309e-08
-1.59315e-07
6.37845e-08
-2.04731e-07
6.85701e-08
-2.53418e-07
7.41549e-08
-3.05589e-07
8.06897e-08
-3.61004e-07
8.82023e-08
-4.18959e-07
9.65991e-08
-4.77982e-07
1.05449e-07
-5.3815e-07
1.13523e-07
-6.0154e-07
1.19478e-07
-6.67772e-07
1.23807e-07
-7.34387e-07
1.27684e-07
-8.01814e-07
1.30847e-07
-8.69389e-07
1.33025e-07
-9.36535e-07
1.34283e-07
-1.00273e-06
1.34649e-07
-1.06769e-06
1.34152e-07
-1.13108e-06
1.32852e-07
-1.19275e-06
1.3084e-07
-1.2525e-06
1.28226e-07
-1.31027e-06
1.25122e-07
-1.36598e-06
1.21642e-07
-1.41966e-06
1.1789e-07
-1.47128e-06
1.13966e-07
-1.52092e-06
1.09954e-07
-1.56861e-06
1.0593e-07
-1.61447e-06
1.0195e-07
-1.65853e-06
9.80626e-08
-1.70093e-06
9.42998e-08
-1.74172e-06
9.06881e-08
-1.78102e-06
8.72401e-08
-1.81889e-06
8.39672e-08
-1.85546e-06
8.08696e-08
-1.89075e-06
7.79492e-08
-1.9249e-06
7.51988e-08
-1.95793e-06
7.26156e-08
-1.98994e-06
7.01886e-08
-2.02097e-06
6.79131e-08
-2.05111e-06
6.57765e-08
-2.08039e-06
6.37736e-08
-2.10888e-06
6.18921e-08
-2.13662e-06
6.01286e-08
-2.16368e-06
5.84721e-08
-2.19007e-06
5.69211e-08
-2.21587e-06
5.54666e-08
-2.24109e-06
5.41096e-08
-2.2658e-06
5.28425e-08
-2.29001e-06
5.16677e-08
-2.31379e-06
5.05793e-08
-2.33716e-06
4.95816e-08
-2.36016e-06
4.86703e-08
-2.38284e-06
4.78505e-08
-2.40524e-06
4.71186e-08
-2.42739e-06
4.64803e-08
-2.44934e-06
4.5933e-08
-2.47113e-06
4.54825e-08
-2.4928e-06
4.51264e-08
-2.5144e-06
4.48694e-08
-2.53596e-06
4.47092e-08
-2.55753e-06
4.46479e-08
-2.57915e-06
4.46827e-08
-2.60087e-06
4.48131e-08
-2.62271e-06
4.50329e-08
-2.64473e-06
4.53387e-08
-2.66692e-06
4.57274e-08
-2.68934e-06
4.61921e-08
-2.71198e-06
4.67233e-08
-2.73488e-06
4.73072e-08
-2.75801e-06
4.79348e-08
-2.78141e-06
4.85877e-08
-2.80501e-06
4.92507e-08
-2.82885e-06
4.98963e-08
-2.85283e-06
5.05097e-08
-2.87696e-06
5.10626e-08
-2.90112e-06
5.15431e-08
-2.92525e-06
5.19203e-08
-2.94916e-06
5.21861e-08
-2.97281e-06
5.22762e-08
-2.99613e-06
5.21412e-08
-3.019e-06
5.17303e-08
-3.04126e-06
5.1004e-08
-3.06272e-06
4.99485e-08
-3.08321e-06
4.8519e-08
-3.10251e-06
4.66948e-08
-3.12044e-06
4.44276e-08
-3.13681e-06
4.17043e-08
-3.15142e-06
3.84945e-08
-3.16404e-06
3.48022e-08
-3.17454e-06
3.05756e-08
-3.18277e-06
2.57972e-08
-3.18863e-06
2.04759e-08
-3.19202e-06
1.46487e-08
-3.19291e-06
8.33663e-09
-3.19117e-06
1.59939e-09
-3.18638e-06
-5.58163e-09
-3.17812e-06
-1.32731e-08
-3.16597e-06
-2.12952e-08
-3.14923e-06
-2.95654e-08
-3.1278e-06
-3.84252e-08
-3.10187e-06
-4.79517e-08
-3.07114e-06
-5.78353e-08
-3.03489e-06
-6.79772e-08
-2.99328e-06
-7.85455e-08
-2.94639e-06
-8.96188e-08
-2.89362e-06
-1.008e-07
-2.83493e-06
-1.12205e-07
-2.77053e-06
-1.23831e-07
-2.70027e-06
-1.35477e-07
-2.62406e-06
-1.47205e-07
-2.54204e-06
-1.58925e-07
-2.45418e-06
-1.70515e-07
-2.36055e-06
-1.81882e-07
-2.26129e-06
-1.9287e-07
-2.15661e-06
-2.03438e-07
-2.04677e-06
-2.13476e-07
-1.93211e-06
-2.2293e-07
-1.81297e-06
-2.31699e-07
-1.68976e-06
-2.39727e-07
-1.5629e-06
-2.46927e-07
-1.43288e-06
-2.53257e-07
-1.30016e-06
-2.58659e-07
-1.16526e-06
-2.63113e-07
-1.02868e-06
-2.66602e-07
-8.90906e-07
-2.69145e-07
-7.52435e-07
-2.70759e-07
-6.13741e-07
-2.7149e-07
-4.75251e-07
-2.71391e-07
-3.37364e-07
-2.70529e-07
-2.00265e-07
-2.69104e-07
-6.39226e-08
-2.67341e-07
7.13266e-08
-2.6513e-07
2.04367e-07
-2.62375e-07
3.33619e-07
-2.5897e-07
4.58237e-07
-2.54503e-07
5.78906e-07
-2.48528e-07
6.95996e-07
-2.41404e-07
8.09388e-07
-2.33578e-07
9.18931e-07
-2.25346e-07
1.02452e-06
-2.1687e-07
1.12609e-06
-2.08283e-07
1.22363e-06
-1.99667e-07
1.31714e-06
-1.91122e-07
1.40666e-06
-1.82692e-07
1.49226e-06
-1.7441e-07
1.57401e-06
-1.66321e-07
1.65199e-06
-1.58472e-07
1.72631e-06
-1.50845e-07
1.79708e-06
-1.43463e-07
1.86442e-06
-1.36334e-07
1.92846e-06
-1.29482e-07
1.98932e-06
-1.22897e-07
2.0471e-06
-1.16556e-07
2.10192e-06
-1.10441e-07
2.15388e-06
-1.04554e-07
2.20308e-06
-9.88735e-08
2.24961e-06
-9.33756e-08
2.29354e-06
-8.80302e-08
2.3349e-06
-8.27799e-08
2.3737e-06
-7.75299e-08
2.40988e-06
-7.21497e-08
2.44326e-06
-6.64296e-08
2.47352e-06
-6.00381e-08
2.50009e-06
-5.23585e-08
2.5219e-06
-4.23098e-08
2.53778e-06
-2.72394e-08
2.54712e-06
-2.37992e-09
2.54854e-06
4.59233e-08
1.37838e-07
2.5268e-06
9.19541e-09
-5.1202e-08
1.00678e-08
-3.86113e-08
6.51645e-09
-2.2766e-08
-6.2034e-10
-8.38668e-09
-1.09182e-08
5.24036e-09
-2.41891e-08
1.83408e-08
-4.0503e-08
3.09408e-08
-6.00436e-08
4.30376e-08
-8.31058e-08
5.4659e-08
-1.09905e-07
6.58925e-08
-1.40518e-07
7.68462e-08
-1.74831e-07
8.75201e-08
-2.13181e-07
9.76491e-08
-2.56374e-07
1.06954e-07
-3.0379e-07
1.15954e-07
-3.54712e-07
1.25055e-07
-4.08461e-07
1.34407e-07
-4.64203e-07
1.43924e-07
-5.21012e-07
1.53377e-07
-5.77969e-07
1.62388e-07
-6.34929e-07
1.70453e-07
-6.92623e-07
1.77155e-07
-7.51356e-07
1.82511e-07
-8.10254e-07
1.86564e-07
-8.68789e-07
1.89351e-07
-9.26671e-07
1.90888e-07
-9.83647e-07
1.91226e-07
-1.03946e-06
1.90443e-07
-1.09399e-06
1.88646e-07
-1.14711e-06
1.85952e-07
-1.1988e-06
1.82491e-07
-1.24899e-06
1.78398e-07
-1.29771e-06
1.73806e-07
-1.34493e-06
1.68843e-07
-1.39071e-06
1.63626e-07
-1.43503e-06
1.58262e-07
-1.47795e-06
1.52841e-07
-1.51948e-06
1.47442e-07
-1.55969e-06
1.42127e-07
-1.59859e-06
1.36944e-07
-1.63625e-06
1.3193e-07
-1.6727e-06
1.27111e-07
-1.70799e-06
1.22503e-07
-1.74216e-06
1.18116e-07
-1.77527e-06
1.13952e-07
-1.80735e-06
1.10011e-07
-1.83847e-06
1.06287e-07
-1.86866e-06
1.02776e-07
-1.89797e-06
9.94668e-08
-1.92643e-06
9.63515e-08
-1.9541e-06
9.34193e-08
-1.98102e-06
9.06605e-08
-2.00722e-06
8.8065e-08
-2.03275e-06
8.56246e-08
-2.05765e-06
8.33307e-08
-2.08194e-06
8.11771e-08
-2.10567e-06
7.91575e-08
-2.12887e-06
7.72684e-08
-2.15158e-06
7.55054e-08
-2.17382e-06
7.38671e-08
-2.19564e-06
7.23512e-08
-2.21706e-06
7.09583e-08
-2.23813e-06
6.96879e-08
-2.25887e-06
6.85421e-08
-2.27932e-06
6.75215e-08
-2.29952e-06
6.66286e-08
-2.3195e-06
6.58648e-08
-2.33931e-06
6.52329e-08
-2.35896e-06
6.47337e-08
-2.37851e-06
6.43691e-08
-2.39799e-06
6.41386e-08
-2.41743e-06
6.40424e-08
-2.43687e-06
6.4078e-08
-2.45634e-06
6.42412e-08
-2.47588e-06
6.45264e-08
-2.49552e-06
6.49272e-08
-2.51528e-06
6.5435e-08
-2.53518e-06
6.60395e-08
-2.55524e-06
6.67261e-08
-2.57546e-06
6.74771e-08
-2.59586e-06
6.82744e-08
-2.61642e-06
6.90947e-08
-2.63714e-06
6.99118e-08
-2.658e-06
7.06946e-08
-2.67896e-06
7.14144e-08
-2.69999e-06
7.20358e-08
-2.72102e-06
7.25274e-08
-2.74197e-06
7.28551e-08
-2.76272e-06
7.29759e-08
-2.7832e-06
7.28434e-08
-2.80336e-06
7.23799e-08
-2.82313e-06
7.15263e-08
-2.84233e-06
7.02447e-08
-2.86086e-06
6.84823e-08
-2.87853e-06
6.6208e-08
-2.8952e-06
6.33668e-08
-2.91071e-06
5.99289e-08
-2.92488e-06
5.58488e-08
-2.93753e-06
5.11109e-08
-2.94849e-06
4.56876e-08
-2.95758e-06
3.95552e-08
-2.96463e-06
3.26908e-08
-2.96946e-06
2.50901e-08
-2.97184e-06
1.67784e-08
-2.97153e-06
7.74854e-09
-2.96819e-06
-1.98346e-09
-2.96156e-06
-1.24713e-08
-2.95133e-06
-2.37078e-08
-2.9372e-06
-3.56449e-08
-2.9187e-06
-4.82246e-08
-2.8957e-06
-6.15883e-08
-2.86807e-06
-7.56952e-08
-2.83558e-06
-9.04463e-08
-2.79784e-06
-1.05778e-07
-2.7548e-06
-1.21658e-07
-2.70633e-06
-1.38107e-07
-2.6522e-06
-1.54948e-07
-2.59227e-06
-1.72086e-07
-2.52657e-06
-1.89473e-07
-2.455e-06
-2.06987e-07
-2.37757e-06
-2.24633e-07
-2.29431e-06
-2.42211e-07
-2.20527e-06
-2.59613e-07
-2.11051e-06
-2.7666e-07
-2.01018e-06
-2.93181e-07
-1.9045e-06
-3.09041e-07
-1.79375e-06
-3.24113e-07
-1.67827e-06
-3.38265e-07
-1.55842e-06
-3.51377e-07
-1.43462e-06
-3.63329e-07
-1.30734e-06
-3.74017e-07
-1.17703e-06
-3.83352e-07
-1.04422e-06
-3.91268e-07
-9.09406e-07
-3.97723e-07
-7.73116e-07
-4.02704e-07
-6.35856e-07
-4.06227e-07
-4.98124e-07
-4.08335e-07
-3.60391e-07
-4.09084e-07
-2.23071e-07
-4.086e-07
-8.64415e-08
-4.07062e-07
4.90824e-08
-4.04554e-07
1.82796e-07
-4.00987e-07
3.14001e-07
-3.96286e-07
4.42145e-07
-3.90474e-07
5.66703e-07
-3.83499e-07
6.874e-07
-3.75171e-07
8.04356e-07
-3.65467e-07
9.17632e-07
-3.54662e-07
1.02715e-06
-3.43089e-07
1.13283e-06
-3.31011e-07
1.23459e-06
-3.1863e-07
1.33242e-06
-3.06096e-07
1.42629e-06
-2.93537e-07
1.51623e-06
-2.81061e-07
1.60229e-06
-2.68751e-07
1.68454e-06
-2.56654e-07
1.76304e-06
-2.44826e-07
1.8379e-06
-2.33326e-07
1.90923e-06
-2.22176e-07
1.97716e-06
-2.11388e-07
2.04179e-06
-2.00971e-07
2.10325e-06
-1.9094e-07
2.16165e-06
-1.81296e-07
2.21711e-06
-1.7201e-07
2.26973e-06
-1.63065e-07
2.31962e-06
-1.54445e-07
2.36688e-06
-1.46129e-07
2.41159e-06
-1.3808e-07
2.45381e-06
-1.30254e-07
2.49359e-06
-1.2256e-07
2.53093e-06
-1.14871e-07
2.56578e-06
-1.06994e-07
2.59799e-06
-9.86422e-08
2.6273e-06
-8.93567e-08
2.65329e-06
-7.83453e-08
2.67522e-06
-6.42485e-08
2.69224e-06
-4.42754e-08
2.70366e-06
-1.3805e-08
2.71139e-06
3.81886e-08
1.30458e-07
2.71877e-06
-4.58475e-09
-4.66866e-08
-1.46503e-08
-2.85919e-08
-2.69185e-08
-1.05355e-08
-4.14039e-08
6.07539e-09
-5.81136e-08
2.19229e-08
-7.7107e-08
3.73159e-08
-9.85558e-08
5.23651e-08
-1.22644e-07
6.71087e-08
-1.49574e-07
8.15662e-08
-1.79451e-07
9.57535e-08
-2.12296e-07
1.09668e-07
-2.4804e-07
1.23249e-07
-2.86779e-07
1.36366e-07
-3.2874e-07
1.48899e-07
-3.73733e-07
1.60925e-07
-4.21238e-07
1.72546e-07
-4.70635e-07
1.83781e-07
-5.21256e-07
1.94531e-07
-5.72508e-07
2.04606e-07
-6.23892e-07
2.13758e-07
-6.75182e-07
2.2172e-07
-7.26336e-07
2.28295e-07
-7.77277e-07
2.33427e-07
-8.27827e-07
2.37099e-07
-8.77819e-07
2.39318e-07
-9.27082e-07
2.40133e-07
-9.75511e-07
2.39628e-07
-1.023e-06
2.37916e-07
-1.06951e-06
2.35128e-07
-1.11499e-06
2.31408e-07
-1.15942e-06
2.269e-07
-1.20279e-06
2.21748e-07
-1.2451e-06
2.16092e-07
-1.28634e-06
2.10062e-07
-1.32652e-06
2.03781e-07
-1.36563e-06
1.97357e-07
-1.4037e-06
1.90884e-07
-1.44071e-06
1.84439e-07
-1.47669e-06
1.78089e-07
-1.51165e-06
1.71884e-07
-1.5456e-06
1.65864e-07
-1.57856e-06
1.60056e-07
-1.61056e-06
1.54481e-07
-1.64161e-06
1.49151e-07
-1.67175e-06
1.44071e-07
-1.701e-06
1.39241e-07
-1.7294e-06
1.3466e-07
-1.75696e-06
1.30322e-07
-1.78374e-06
1.26217e-07
-1.80975e-06
1.22338e-07
-1.83503e-06
1.18675e-07
-1.85961e-06
1.15216e-07
-1.88352e-06
1.11953e-07
-1.9068e-06
1.08875e-07
-1.92947e-06
1.05976e-07
-1.95157e-06
1.03247e-07
-1.97313e-06
1.00682e-07
-1.99417e-06
9.82769e-08
-2.01473e-06
9.60282e-08
-2.03483e-06
9.39335e-08
-2.0545e-06
9.19914e-08
-2.07378e-06
9.02022e-08
-2.0927e-06
8.85667e-08
-2.11128e-06
8.70865e-08
-2.12956e-06
8.57638e-08
-2.14757e-06
8.4601e-08
-2.16534e-06
8.36009e-08
-2.18291e-06
8.27659e-08
-2.20032e-06
8.2098e-08
-2.21758e-06
8.15988e-08
-2.23475e-06
8.12687e-08
-2.25185e-06
8.11061e-08
-2.26892e-06
8.11084e-08
-2.28598e-06
8.12714e-08
-2.30308e-06
8.15871e-08
-2.32024e-06
8.20464e-08
-2.33748e-06
8.26387e-08
-2.35483e-06
8.33486e-08
-2.3723e-06
8.4158e-08
-2.38991e-06
8.50446e-08
-2.40765e-06
8.59837e-08
-2.42555e-06
8.69457e-08
-2.44357e-06
8.78972e-08
-2.46172e-06
8.88007e-08
-2.47997e-06
8.96165e-08
-2.49828e-06
9.03018e-08
-2.5166e-06
9.08117e-08
-2.53486e-06
9.1098e-08
-2.55296e-06
9.11152e-08
-2.57085e-06
9.07825e-08
-2.58848e-06
9.00471e-08
-2.60576e-06
8.88247e-08
-2.62257e-06
8.70616e-08
-2.63878e-06
8.46973e-08
-2.65427e-06
8.16821e-08
-2.66887e-06
7.79555e-08
-2.68244e-06
7.34721e-08
-2.69481e-06
6.81807e-08
-2.7058e-06
6.20488e-08
-2.71524e-06
5.50384e-08
-2.72292e-06
4.71156e-08
-2.72864e-06
3.82518e-08
-2.73218e-06
2.84248e-08
-2.73328e-06
1.76399e-08
-2.73164e-06
5.8792e-09
-2.72698e-06
-6.85929e-09
-2.71903e-06
-2.0622e-08
-2.70753e-06
-3.53943e-08
-2.69217e-06
-5.11622e-08
-2.67267e-06
-6.78729e-08
-2.6488e-06
-8.55813e-08
-2.62036e-06
-1.0423e-07
-2.58712e-06
-1.23771e-07
-2.54885e-06
-1.44111e-07