/*--------------------------------*- C++ -*----------------------------------*\
| =========                 |                                                 |
| \\      /  F ield         | OpenFOAM: The Open Source CFD Toolbox           |
|  \\    /   O peration     | Version:  5.0                                   |
|   \\  /    A nd           | Web:      www.OpenFOAM.org                      |
|    \\/     M anipulation  |                                                 |
\*---------------------------------------------------------------------------*/
FoamFile
{
    version     2.0;
    format      ascii;
    class       volVectorField;
    location    "100";
    object      U;
}
// * * * * * * * * * * * * * * * * * * * * * * * * * * * * * * * * * * * * * //

dimensions      [0 1 -1 0 0 0 0];

internalField   nonuniform List<vector> 
12225
(
(9.85697 -0.886412 0)
(9.6666 -0.740745 0)
(9.45559 -0.429459 0)
(9.22425 -0.222191 0)
(9.00602 -0.106415 0)
(8.81362 -0.0458096 0)
(8.6463 -0.0151082 0)
(8.50372 0.000553531 0)
(8.38136 0.00851832 0)
(8.27787 0.0124646 0)
(8.18826 0.0142491 0)
(8.11066 0.0153873 0)
(8.04165 0.0159608 0)
(7.97962 0.0164669 0)
(7.92105 0.0171972 0)
(7.86794 0.0185564 0)
(7.79328 0.0222906 0)
(7.78393 0.0321283 0)
(10.0545 0.227556 0)
(10.121 0.326934 0)
(10.1196 0.261591 0)
(10.0855 0.186587 0)
(10.0432 0.13473 0)
(9.99641 0.101208 0)
(9.94355 0.0794249 0)
(9.8845 0.0647477 0)
(9.82286 0.0545136 0)
(9.75985 0.0470228 0)
(9.69787 0.0414093 0)
(9.63724 0.0370821 0)
(9.57896 0.0337819 0)
(9.52322 0.0315317 0)
(9.46921 0.030014 0)
(9.42007 0.0316332 0)
(9.36636 0.0316355 0)
(9.34014 0.0562136 0)
(10.0035 0.0579246 0)
(10.0303 0.0560257 0)
(10.056 0.0338218 0)
(10.0702 0.0329589 0)
(10.0767 0.0407445 0)
(10.0775 0.0466833 0)
(10.072 0.0495504 0)
(10.0606 0.0505676 0)
(10.0451 0.0505665 0)
(10.0262 0.0499953 0)
(10.0052 0.0491596 0)
(9.9822 0.0483088 0)
(9.95808 0.0475951 0)
(9.93313 0.0473317 0)
(9.90725 0.0475181 0)
(9.88174 0.0498578 0)
(9.85499 0.0528163 0)
(9.83353 0.0659518 0)
(9.99778 0.0110644 0)
(10.011 0.0266352 0)
(10.0349 0.0372038 0)
(10.0524 0.0481705 0)
(10.0641 0.055581 0)
(10.073 0.0583665 0)
(10.0789 0.0586083 0)
(10.0816 0.0579633 0)
(10.0817 0.0570486 0)
(10.0797 0.0560417 0)
(10.0761 0.0550418 0)
(10.0711 0.0542166 0)
(10.0648 0.0536298 0)
(10.0577 0.0535659 0)
(10.0494 0.0540913 0)
(10.041 0.0563679 0)
(10.0326 0.0597573 0)
(10.0267 0.0680511 0)
(9.99935 0.0072127 0)
(10.009 0.0316923 0)
(10.0274 0.0439934 0)
(10.0417 0.0500364 0)
(10.0525 0.0537787 0)
(10.0625 0.05547 0)
(10.071 0.0558404 0)
(10.0775 0.0556705 0)
(10.0823 0.0552918 0)
(10.0858 0.0548164 0)
(10.0881 0.0543324 0)
(10.0895 0.0539883 0)
(10.0899 0.0538761 0)
(10.0897 0.0542322 0)
(10.0888 0.0551832 0)
(10.088 0.0574117 0)
(10.0876 0.0606525 0)
(10.0893 0.0659566 0)
(10.0003 0.00919767 0)
(10.0083 0.0312187 0)
(10.0226 0.0410342 0)
(10.0348 0.0455339 0)
(10.0448 0.0492426 0)
(10.0544 0.0516594 0)
(10.0632 0.0527483 0)
(10.0706 0.0531234 0)
(10.0768 0.0531818 0)
(10.082 0.0530832 0)
(10.0864 0.0529381 0)
(10.0901 0.0528881 0)
(10.0932 0.0530428 0)
(10.0957 0.0535896 0)
(10.098 0.0546553 0)
(10.1004 0.0566016 0)
(10.1034 0.0592622 0)
(10.108 0.0626657 0)
(10.0004 0.00896881 0)
(10.0071 0.0271454 0)
(10.019 0.0365226 0)
(10.03 0.0415598 0)
(10.0393 0.0456593 0)
(10.0483 0.0484207 0)
(10.0567 0.0498134 0)
(10.0642 0.0504452 0)
(10.0707 0.0507359 0)
(10.0765 0.0508541 0)
(10.0817 0.0509112 0)
(10.0863 0.0510343 0)
(10.0904 0.051333 0)
(10.0943 0.0519464 0)
(10.098 0.0529719 0)
(10.1019 0.0545705 0)
(10.1064 0.056586 0)
(10.1122 0.0587249 0)
(10.0004 0.00794479 0)
(10.006 0.0234503 0)
(10.0161 0.0328645 0)
(10.0261 0.0383006 0)
(10.0349 0.0423831 0)
(10.0432 0.0451751 0)
(10.0512 0.0467249 0)
(10.0585 0.0475394 0)
(10.065 0.0480006 0)
(10.0709 0.0482756 0)
(10.0764 0.0484739 0)
(10.0814 0.0487089 0)
(10.0861 0.0490802 0)
(10.0905 0.0496862 0)
(10.095 0.0505871 0)
(10.0996 0.051825 0)
(10.1048 0.0532407 0)
(10.1108 0.0544859 0)
(10.0004 0.006994 0)
(10.005 0.020509 0)
(10.0136 0.0296025 0)
(10.0227 0.0350904 0)
(10.031 0.0390393 0)
(10.0388 0.041822 0)
(10.0464 0.0435076 0)
(10.0534 0.0444787 0)
(10.0598 0.0450746 0)
(10.0657 0.0454662 0)
(10.0712 0.0457619 0)
(10.0764 0.0460623 0)
(10.0813 0.0464518 0)
(10.0861 0.0469972 0)
(10.0909 0.0477249 0)
(10.0959 0.0486142 0)
(10.1013 0.0495116 0)
(10.1073 0.0501159 0)
(10.0004 0.00616798 0)
(10.0043 0.0179537 0)
(10.0116 0.0264435 0)
(10.0198 0.0318389 0)
(10.0275 0.0356721 0)
(10.0348 0.0384308 0)
(10.042 0.0402088 0)
(10.0487 0.0412962 0)
(10.055 0.0419911 0)
(10.0609 0.0424651 0)
(10.0664 0.042823 0)
(10.0716 0.0431522 0)
(10.0767 0.0435209 0)
(10.0816 0.0439718 0)
(10.0866 0.0445075 0)
(10.0917 0.0450796 0)
(10.097 0.0455527 0)
(10.1028 0.0456984 0)
(10.0003 0.00541264 0)
(10.0036 0.0156532 0)
(10.0098 0.0234216 0)
(10.0172 0.0286282 0)
(10.0243 0.0323288 0)
(10.0313 0.0350208 0)
(10.038 0.0368331 0)
(10.0445 0.0379931 0)
(10.0506 0.038755 0)
(10.0564 0.0392819 0)
(10.0618 0.0396726 0)
(10.0671 0.0400015 0)
(10.0721 0.0403227 0)
(10.0771 0.0406617 0)
(10.0821 0.0410076 0)
(10.0872 0.0413051 0)
(10.0925 0.0414451 0)
(10.098 0.0412675 0)
(10.0003 0.00475149 0)
(10.0031 0.0137213 0)
(10.0085 0.0207906 0)
(10.0151 0.0257391 0)
(10.0218 0.029281 0)
(10.0283 0.0318745 0)
(10.0348 0.0336737 0)
(10.041 0.0348642 0)
(10.0469 0.0356599 0)
(10.0526 0.036211 0)
(10.058 0.0366087 0)
(10.0632 0.036917 0)
(10.0682 0.0371787 0)
(10.0732 0.0374096 0)
(10.0782 0.0375937 0)
(10.0832 0.0376801 0)
(10.0883 0.0375846 0)
(10.0935 0.0372006 0)
(10.0003 0.00414094 0)
(10.0027 0.0119568 0)
(10.0074 0.0183016 0)
(10.0134 0.0229147 0)
(10.0196 0.0262614 0)
(10.0257 0.0287284 0)
(10.0318 0.0304789 0)
(10.0378 0.0316679 0)
(10.0436 0.0324727 0)
(10.0491 0.033027 0)
(10.0544 0.0334141 0)
(10.0595 0.0336882 0)
(10.0646 0.0338833 0)
(10.0695 0.0340098 0)
(10.0744 0.0340517 0)
(10.0793 0.0339672 0)
(10.0842 0.0336942 0)
(10.0891 0.0331651 0)
(10.0002 0.00351038 0)
(10.0024 0.0101223 0)
(10.0064 0.0156309 0)
(10.0117 0.0197831 0)
(10.0173 0.02285 0)
(10.0231 0.0251285 0)
(10.0289 0.0267764 0)
(10.0346 0.0279218 0)
(10.0401 0.0287039 0)
(10.0455 0.0292358 0)
(10.0507 0.0295908 0)
(10.0557 0.0298134 0)
(10.0607 0.0299293 0)
(10.0655 0.029946 0)
(10.0703 0.0298514 0)
(10.075 0.0296162 0)
(10.0797 0.0291998 0)
(10.0843 0.028564 0)
(10.0002 0.00285513 0)
(10.002 0.00821466 0)
(10.0055 0.0127849 0)
(10.0101 0.0163442 0)
(10.0153 0.0190265 0)
(10.0206 0.0210371 0)
(10.026 0.0225123 0)
(10.0314 0.0235556 0)
(10.0367 0.0242697 0)
(10.0419 0.0247433 0)
(10.0469 0.0250374 0)
(10.0518 0.025188 0)
(10.0567 0.0252142 0)
(10.0614 0.0251216 0)
(10.066 0.0249044 0)
(10.0705 0.0245463 0)
(10.0749 0.0240263 0)
(10.0792 0.0233266 0)
(10.0002 0.00217369 0)
(10.0017 0.00623456 0)
(10.0047 0.00976961 0)
(10.0088 0.0125992 0)
(10.0134 0.0147737 0)
(10.0183 0.0164185 0)
(10.0233 0.0176351 0)
(10.0284 0.0185016 0)
(10.0335 0.0190891 0)
(10.0384 0.0194599 0)
(10.0433 0.0196598 0)
(10.0481 0.0197175 0)
(10.0527 0.0196472 0)
(10.0572 0.0194541 0)
(10.0616 0.0191373 0)
(10.0659 0.0186913 0)
(10.0701 0.01811 0)
(10.0741 0.0173878 0)
(10.0002 0.00146208 0)
(10.0015 0.00416653 0)
(10.0041 0.0065661 0)
(10.0077 0.00852658 0)
(10.0118 0.0100568 0)
(10.0164 0.0112206 0)
(10.0211 0.0120795 0)
(10.0258 0.0126834 0)
(10.0306 0.0130756 0)
(10.0354 0.0132932 0)
(10.04 0.0133653 0)
(10.0446 0.0133114 0)
(10.049 0.0131422 0)
(10.0534 0.0128624 0)
(10.0576 0.0124736 0)
(10.0616 0.0119771 0)
(10.0655 0.0113749 0)
(10.0692 0.0106674 0)
(10.0001 0.000702944 0)
(10.0013 0.00195747 0)
(10.0036 0.00309989 0)
(10.0069 0.00404323 0)
(10.0108 0.00478092 0)
(10.015 0.00533407 0)
(10.0194 0.00572505 0)
(10.0239 0.00597323 0)
(10.0285 0.00609612 0)
(10.033 0.00610797 0)
(10.0375 0.00601992 0)
(10.0418 0.00583995 0)
(10.0461 0.00557318 0)
(10.0502 0.00522222 0)
(10.0541 0.00478911 0)
(10.058 0.00427646 0)
(10.0616 0.00368909 0)
(10.0651 0.0030282 0)
(10.0001 -0.00014805 0)
(10.0013 -0.000515405 0)
(10.0035 -0.000803823 0)
(10.0066 -0.00104618 0)
(10.0103 -0.00124967 0)
(10.0144 -0.00143048 0)
(10.0187 -0.00160723 0)
(10.0231 -0.0017939 0)
(10.0275 -0.00199944 0)
(10.0319 -0.00223224 0)
(10.0362 -0.00249992 0)
(10.0404 -0.00280843 0)
(10.0444 -0.00316161 0)
(10.0484 -0.00356196 0)
(10.0521 -0.00401072 0)
(10.0557 -0.00450766 0)
(10.0592 -0.00504979 0)
(10.0624 -0.00563875 0)
(10.0001 -0.000964762 0)
(10.0013 -0.0028876 0)
(10.0037 -0.00455746 0)
(10.007 -0.00593183 0)
(10.0109 -0.00701535 0)
(10.0151 -0.00786938 0)
(10.0195 -0.00855669 0)
(10.024 -0.00912052 0)
(10.0284 -0.00959741 0)
(10.0328 -0.0100203 0)
(10.037 -0.0104162 0)
(10.0412 -0.0108044 0)
(10.0452 -0.0111977 0)
(10.049 -0.0116047 0)
(10.0526 -0.0120314 0)
(10.0561 -0.0124817 0)
(10.0594 -0.0129562 0)
(10.0626 -0.0134592 0)
(10.0002 -0.00166927 0)
(10.0015 -0.00495766 0)
(10.0041 -0.00783426 0)
(10.0078 -0.0101304 0)
(10.0121 -0.011874 0)
(10.0166 -0.0132167 0)
(10.0212 -0.0142656 0)
(10.0258 -0.0150793 0)
(10.0304 -0.0157159 0)
(10.0348 -0.0162348 0)
(10.0391 -0.0166829 0)
(10.0432 -0.0170909 0)
(10.0472 -0.0174789 0)
(10.051 -0.0178602 0)
(10.0546 -0.0182448 0)
(10.058 -0.0186394 0)
(10.0613 -0.0190467 0)
(10.0643 -0.0194724 0)
(10.0002 -0.00233786 0)
(10.0017 -0.00700081 0)
(10.0047 -0.0111038 0)
(10.009 -0.0142298 0)
(10.0138 -0.0164838 0)
(10.0187 -0.018178 0)
(10.0235 -0.0194736 0)
(10.0284 -0.0204437 0)
(10.0332 -0.0211695 0)
(10.0377 -0.0217323 0)
(10.0421 -0.0221902 0)
(10.0463 -0.0225825 0)
(10.0502 -0.0229356 0)
(10.054 -0.023269 0)
(10.0576 -0.0235957 0)
(10.061 -0.0239247 0)
(10.0642 -0.0242597 0)
(10.0672 -0.0246063 0)
(10.0002 -0.0029633 0)
(10.0018 -0.00906749 0)
(10.0054 -0.0143919 0)
(10.0106 -0.0182473 0)
(10.016 -0.0209591 0)
(10.0213 -0.022951 0)
(10.0265 -0.0243795 0)
(10.0316 -0.0253721 0)
(10.0366 -0.0260836 0)
(10.0413 -0.026624 0)
(10.0457 -0.0270506 0)
(10.0499 -0.0274 0)
(10.0539 -0.0277015 0)
(10.0577 -0.0279777 0)
(10.0613 -0.0282434 0)
(10.0647 -0.0285082 0)
(10.0679 -0.0287759 0)
(10.0709 -0.0290511 0)
(10.0001 -0.00351458 0)
(10.0018 -0.0115278 0)
(10.0063 -0.0178405 0)
(10.0123 -0.0219122 0)
(10.0184 -0.0249545 0)
(10.0242 -0.0273418 0)
(10.0298 -0.0289606 0)
(10.0353 -0.0299544 0)
(10.0404 -0.0305949 0)
(10.0452 -0.0310484 0)
(10.0498 -0.0313841 0)
(10.0541 -0.0316416 0)
(10.0581 -0.0318545 0)
(10.0619 -0.0320467 0)
(10.0655 -0.0322333 0)
(10.0688 -0.0324216 0)
(10.072 -0.0326147 0)
(10.0749 -0.0328136 0)
(9.99992 -0.00336778 0)
(10.0016 -0.0149498 0)
(10.0073 -0.0226902 0)
(10.0143 -0.0261829 0)
(10.0207 -0.0287498 0)
(10.027 -0.0310977 0)
(10.0332 -0.032806 0)
(10.0392 -0.0338837 0)
(10.0447 -0.034575 0)
(10.0497 -0.0350344 0)
(10.0544 -0.0353339 0)
(10.0588 -0.0355271 0)
(10.0628 -0.0356603 0)
(10.0665 -0.0357649 0)
(10.07 -0.0358595 0)
(10.0732 -0.0359539 0)
(10.0761 -0.0360521 0)
(10.0788 -0.0361566 0)
(9.9986 -0.000388689 0)
(9.99909 -0.0157428 0)
(10.0076 -0.0274025 0)
(10.0167 -0.0324503 0)
(10.0238 -0.0348119 0)
(10.0307 -0.0361527 0)
(10.0378 -0.0368933 0)
(10.0443 -0.0373528 0)
(10.0501 -0.0376967 0)
(10.0553 -0.0379418 0)
(10.0599 -0.0380882 0)
(10.064 -0.0381607 0)
(10.0676 -0.0381904 0)
(10.0708 -0.0381997 0)
(10.0736 -0.0382035 0)
(10.076 -0.0382102 0)
(10.0782 -0.0382218 0)
(10.08 -0.0382405 0)
(9.99488 0.00134191 0)
(9.99288 -0.00808323 0)
(10.0061 -0.020333 0)
(10.0202 -0.0322469 0)
(10.0307 -0.0404393 0)
(10.0393 -0.0441011 0)
(10.0469 -0.0450038 0)
(10.0531 -0.0448521 0)
(10.058 -0.0443813 0)
(10.0619 -0.0437847 0)
(10.0649 -0.0431412 0)
(10.0671 -0.0425076 0)
(10.0686 -0.0419192 0)
(10.0695 -0.0413854 0)
(10.0698 -0.0409156 0)
(10.0697 -0.0405066 0)
(10.0692 -0.0401549 0)
(10.0685 -0.0398353 0)
(9.99473 -0.0305575 0)
(9.99926 -0.0228649 0)
(10.0147 -0.00262355 0)
(10.0304 -0.00188805 0)
(10.0435 -0.0116291 0)
(10.0534 -0.0208872 0)
(10.0595 -0.0272386 0)
(10.062 -0.031461 0)
(10.0617 -0.034232 0)
(10.0593 -0.0359269 0)
(10.0553 -0.036859 0)
(10.05 -0.0372951 0)
(10.0438 -0.0374251 0)
(10.0368 -0.0373685 0)
(10.0293 -0.0372163 0)
(10.0213 -0.0370248 0)
(10.0132 -0.0368579 0)
(10.005 -0.0366842 0)
(10.0273 -0.182756 0)
(10.0763 -0.288311 0)
(10.0872 -0.247747 0)
(10.0777 -0.186508 0)
(10.0664 -0.140278 0)
(10.0538 -0.108198 0)
(10.0366 -0.0858549 0)
(10.0146 -0.0703922 0)
(9.98952 -0.0596206 0)
(9.96251 -0.0518444 0)
(9.93458 -0.0460221 0)
(9.9063 -0.0415284 0)
(9.87816 -0.0379777 0)
(9.85049 -0.035108 0)
(9.82352 -0.0327484 0)
(9.79737 -0.0308359 0)
(9.77229 -0.0293282 0)
(9.74829 -0.0285202 0)
(9.93575 0.689321 0)
(9.86861 0.609607 0)
(9.76456 0.380631 0)
(9.6267 0.217452 0)
(9.486 0.119281 0)
(9.35737 0.0632039 0)
(9.24291 0.0315938 0)
(9.14143 0.0136347 0)
(9.05182 0.00328275 0)
(8.97291 -0.00277711 0)
(8.90308 -0.00633255 0)
(8.84096 -0.00845459 0)
(8.78532 -0.00970923 0)
(8.73525 -0.0104611 0)
(8.68985 -0.0109663 0)
(8.64852 -0.0112388 0)
(8.61033 -0.0114498 0)
(8.57496 -0.0121128 0)
(0.0111592 -0.01672 -5.88802e-19)
(0.0322106 -0.025608 2.83447e-19)
(0.0484241 -0.0234621 0)
(0.0637014 -0.0171922 0)
(0.0736389 -0.00894383 0)
(0.0773444 -0.000224255 -1.11818e-19)
(0.075349 0.00788041 0)
(0.0683233 0.0146432 0)
(0.0569752 0.0197843 0)
(0.0421371 0.0234036 0)
(0.0252742 0.0262442 8.85885e-20)
(0.00938611 0.0294723 0)
(-0.0115725 0.0259107 0)
(-0.041765 0.0142135 0)
(-0.0576503 0.00899901 0)
(-0.0783143 0.00779836 2.32471e-19)
(-0.10125 0.0084027 0)
(-0.12877 0.01167 0)
(-0.162929 0.0201473 0)
(-0.202731 0.0356954 0)
(-0.246636 0.0488905 0)
(-0.297209 0.0491286 0)
(-0.347936 0.0489188 0)
(-0.398567 0.0559849 1.0998e-19)
(-0.455793 0.0584931 -1.01648e-19)
(-0.514165 0.0600415 9.40953e-20)
(-0.574235 0.061361 8.73489e-20)
(-0.635662 0.0623899 0)
(-0.698054 0.0630056 0)
(-0.760954 0.0631621 -7.15995e-20)
(-0.82391 0.0628537 -6.75748e-20)
(-0.886483 0.062124 0)
(-0.948295 0.0610103 0)
(-1.00902 0.0595785 -5.81721e-20)
(-1.0684 0.0578811 0)
(-1.12623 0.0559912 0)
(-1.18235 0.0539576 5.16234e-20)
(-1.23667 0.0518449 0)
(-1.28914 0.0496884 4.83213e-20)
(-1.33975 0.0475382 9.38119e-20)
(-1.38852 0.0454132 0)
(-1.43548 0.0433494 0)
(-1.48071 0.041352 0)
(-1.52427 0.0394452 0)
(-1.56625 0.0376231 0)
(-1.60673 0.0359016 8.11468e-20)
(-1.64579 0.0342671 7.95243e-20)
(-1.68352 0.0327307 7.79947e-20)
(-1.72 0.031276 0)
(-1.7553 0.0299117 -7.51637e-20)
(-1.78949 0.0286174 0)
(-1.82266 0.0274024 7.25712e-20)
(-1.85486 0.0262485 7.13444e-20)
(-1.88616 0.025164 0)
(-1.91662 0.0241301 0)
(-1.9463 0.0231582 0)
(-1.97524 0.0222325 6.67585e-20)
(-2.00349 0.0213645 0)
(-2.03109 0.020537 0)
(-2.0581 0.0197642 0)
(-2.08456 0.0190322 0)
(-2.1105 0.0183551 0)
(-2.13598 0.0177196 0)
(-2.16104 0.0171403 0)
(-2.18571 0.0166046 0)
(-2.21004 0.016127 -5.72915e-20)
(-2.23408 0.015697 0)
(-2.25788 0.0153275 0)
(-2.28147 0.0150091 5.41912e-20)
(-2.30491 0.0147523 5.3156e-20)
(-2.32825 0.0145493 0)
(-2.35155 0.0144082 -5.10856e-20)
(-2.37484 0.0143223 5.00508e-20)
(-2.3982 0.0142969 0)
(-2.42168 0.0143272 -4.79834e-20)
(-2.44533 0.0144173 0)
(-2.46921 0.0145691 0)
(-2.49336 0.0147862 4.4903e-20)
(-2.51781 0.0150655 0)
(-2.54264 0.0154046 -4.28781e-20)
(-2.56786 0.0158058 0)
(-2.5935 0.0162624 4.0892e-20)
(-2.61959 0.0167697 3.99187e-20)
(-2.64616 0.0173112 3.89615e-20)
(-2.6732 0.0178885 7.60468e-20)
(-2.70073 0.018484 -7.42147e-20)
(-2.72869 0.019099 0)
(-2.75703 0.0197002 0)
(-2.78567 0.0202822 0)
(-2.81456 0.0207954 -6.74197e-20)
(-2.84376 0.0211932 -6.58664e-20)
(-2.87322 0.0214579 6.43746e-20)
(-2.90278 0.0215738 0)
(-2.93229 0.0215351 -6.15729e-20)
(-2.96157 0.0213316 -6.02629e-20)
(-2.99043 0.0209615 -5.90149e-20)
(-3.01868 0.0204227 0)
(-3.04608 0.0197202 0)
(-3.07238 0.0189193 0)
(-3.09733 0.0180817 -5.46943e-20)
(-3.12067 0.0170846 0)
(-3.14206 0.0158853 0)
(-3.16109 0.0146325 5.22427e-20)
(-3.17736 0.0133018 0)
(-3.19038 0.0117377 0)
(-3.19974 0.00998874 5.03703e-20)
(-3.20489 0.00808827 0)
(-3.20632 0.00561712 0)
(-3.20364 0.0037214 -4.84515e-20)
(-3.19723 0.0032565 -4.77336e-20)
(-3.18709 0.00213006 0)
(-3.17248 -0.000798745 4.63054e-20)
(-3.15274 -0.00355064 0)
(-3.12836 -0.00480331 -4.43618e-20)
(-3.09919 -0.007111 0)
(-3.0645 -0.0104182 -4.18447e-20)
(-3.02435 -0.0125211 -4.02514e-20)
(-2.97887 -0.0149752 0)
(-2.92765 -0.0184943 0)
(-2.8705 -0.0217277 0)
(-2.80787 -0.0247692 0)
(-2.73947 -0.0283366 0)
(-2.66539 -0.0318696 0)
(-2.58563 -0.0355186 0)
(-2.50023 -0.0392076 -1.36479e-20)
(-2.40936 -0.0429377 7.65785e-21)
(-2.31321 -0.0466522 0)
(-2.21205 -0.0503395 0)
(-2.10618 -0.0539414 0)
(-1.99592 -0.0574441 0)
(-1.88165 -0.0608001 -7.26857e-20)
(-1.76376 -0.0639938 0)
(-1.64267 -0.0669942 1.24531e-19)
(-1.51883 -0.0697893 -1.54979e-19)
(-1.3927 -0.0723654 0)
(-1.26472 -0.0747368 0)
(-1.13534 -0.076915 0)
(-1.00498 -0.0789085 3.15791e-19)
(-0.874071 -0.0807386 3.68564e-19)
(-0.742994 -0.0824293 0)
(-0.612122 -0.0839959 4.95341e-19)
(-0.481873 -0.0853984 5.72357e-19)
(-0.352383 -0.0866408 -6.61062e-19)
(-0.224344 -0.0879436 0)
(-0.0963711 -0.0881985 0)
(0.0342841 -0.0859443 -8.2816e-19)
(0.164114 -0.0820677 0)
(0.290801 -0.0778466 0)
(0.414015 -0.0736738 0)
(0.533304 -0.0696345 0)
(0.648467 -0.0657612 6.89852e-19)
(0.759387 -0.0620412 6.72725e-19)
(0.866034 -0.0584856 0)
(0.96842 -0.0551295 6.4392e-19)
(1.06659 -0.0519439 0)
(1.1606 -0.0488844 0)
(1.25058 -0.0459933 6.10303e-19)
(1.33665 -0.0432818 0)
(1.41891 -0.0407219 5.92088e-19)
(1.49748 -0.0382993 0)
(1.57248 -0.0360078 0)
(1.64404 -0.0338444 5.69518e-19)
(1.71231 -0.0318069 0)
(1.77742 -0.0298841 5.56856e-19)
(1.83947 -0.0280682 0)
(1.89859 -0.026351 0)
(1.95486 -0.024729 0)
(2.0084 -0.0231854 -5.36035e-19)
(2.05928 -0.0217178 0)
(2.10756 -0.0203166 5.27577e-19)
(2.15325 -0.0189573 0)
(2.19633 -0.0176142 0)
(2.23665 -0.0162591 0)
(2.27393 -0.0148223 0)
(2.3077 -0.0132193 0)
(2.33653 -0.0112383 0)
(2.35972 -0.00822442 0)
(2.36688 -0.00239201 -1.03341e-18)
(2.36012 0.0110076 0)
(2.24717 0.0299526 0)
(0.011189 -0.0651471 1.31094e-18)
(0.0280124 -0.0645886 -5.24297e-19)
(0.0341918 -0.0483229 0)
(0.0379681 -0.0320864 1.52018e-19)
(0.0378707 -0.015976 0)
(0.033992 -0.000472645 5.75855e-20)
(0.0267626 0.0138585 -1.0693e-19)
(0.0162479 0.0266033 -1.02441e-19)
(0.00236463 0.03763 0)
(-0.0148318 0.047194 -1.01553e-19)
(-0.0351435 0.0558933 -5.31389e-20)
(-0.0581233 0.0644381 0)
(-0.0877857 0.071963 0)
(-0.122991 0.0752758 0)
(-0.161766 0.0786803 0)
(-0.203321 0.0834663 -6.7179e-20)
(-0.24831 0.0900707 0)
(-0.296925 0.098756 1.2143e-19)
(-0.348389 0.10951 0)
(-0.400878 0.121714 0)
(-0.454315 0.133375 -9.32203e-20)
(-0.510014 0.141846 0)
(-0.567842 0.147219 7.8851e-20)
(-0.627373 0.152115 -3.7493e-20)
(-0.688276 0.156401 3.57946e-20)
(-0.749385 0.159321 -3.42385e-20)
(-0.810322 0.160992 -3.27909e-20)
(-0.870676 0.161454 0)
(-0.930098 0.160736 0)
(-0.98831 0.158924 2.9063e-20)
(-1.0451 0.156141 -2.77705e-20)
(-1.1003 0.152542 0)
(-1.1538 0.148282 0)
(-1.20554 0.143523 2.53672e-20)
(-1.25549 0.138408 0)
(-1.30365 0.133082 0)
(-1.35005 0.127658 -2.33241e-20)
(-1.39474 0.122243 0)
(-1.43777 0.116911 2.20178e-20)
(-1.47922 0.111731 -4.34479e-20)
(-1.51916 0.106738 0)
(-1.55767 0.101972 0)
(-1.59483 0.0974421 -8.14092e-20)
(-1.63073 0.093165 -7.99219e-20)
(-1.66544 0.0891334 -7.85193e-20)
(-1.69903 0.085352 3.84349e-20)
(-1.73158 0.0818029 -3.81174e-20)
(-1.76315 0.0784851 -1.12225e-19)
(-1.7938 0.0753765 7.35588e-20)
(-1.82359 0.0724744 3.63575e-20)
(-1.85257 0.0697543 0)
(-1.88081 0.0672131 -3.52803e-20)
(-1.90834 0.0648281 3.45258e-20)
(-1.93522 0.0625981 0)
(-1.96149 0.0605021 0)
(-1.98719 0.0585417 0)
(-2.01236 0.0566989 -3.27846e-20)
(-2.03704 0.0549783 0)
(-2.06127 0.0533635 6.34916e-20)
(-2.08508 0.0518606 0)
(-2.1085 0.0504553 6.1622e-20)
(-2.13159 0.0491557 0)
(-2.15436 0.0479495 -5.97572e-20)
(-2.17687 0.0468462 0)
(-2.19914 0.0458341 5.78863e-20)
(-2.22121 0.0449227 -2.84217e-20)
(-2.24312 0.0441021 0)
(-2.26491 0.0433816 -5.50532e-20)
(-2.28662 0.0427523 -2.70941e-20)
(-2.30828 0.0422214 -2.66149e-20)
(-2.32994 0.0417817 0)
(-2.35164 0.0414378 -2.55701e-20)
(-2.37342 0.0411824 -2.51749e-20)
(-2.3953 0.0410155 0)
(-2.41734 0.0409281 2.42164e-20)
(-2.43957 0.040917 -4.73795e-20)
(-2.46202 0.0409771 0)
(-2.4847 0.0411043 -2.27903e-20)
(-2.50764 0.0412892 0)
(-2.53087 0.0415192 6.54308e-20)
(-2.55438 0.0417885 0)
(-2.57818 0.0420836 -6.26555e-20)
(-2.60225 0.0423948 -2.04872e-20)
(-2.62659 0.0426967 1.98636e-20)
(-2.65117 0.0429833 3.88306e-20)
(-2.67596 0.0432321 -3.79521e-20)
(-2.7009 0.0434464 0)
(-2.72591 0.0436043 0)
(-2.75085 0.0437058 0)
(-2.77564 0.0437087 1.05229e-19)
(-2.80021 0.0435553 3.45652e-20)
(-2.82449 0.0432071 -3.3888e-20)
(-2.84835 0.0426395 0)
(-2.8716 0.0418421 -3.19307e-20)
(-2.89409 0.0407867 3.20281e-20)
(-2.91562 0.0394544 3.14649e-20)
(-2.93601 0.0378125 0)
(-2.95508 0.0358454 0)
(-2.97263 0.0335267 0)
(-2.98848 0.0308526 2.95366e-20)
(-3.00243 0.0278066 0)
(-3.01434 0.0243704 -5.70139e-20)
(-3.02408 0.0205347 -8.48885e-20)
(-3.03155 0.0163308 5.58382e-20)
(-3.0367 0.0118363 0)
(-3.03941 0.00713793 2.70957e-20)
(-3.0397 0.00238135 0)
(-3.03675 -0.00243792 5.36533e-20)
(-3.0303 -0.0074002 -2.62431e-20)
(-3.01979 -0.0125705 -2.59349e-20)
(-3.00486 -0.0180322 0)
(-2.98546 -0.0236633 -7.69712e-20)
(-2.96163 -0.02942 5.0315e-20)
(-2.93283 -0.0354135 2.49066e-20)
(-2.89867 -0.0414943 0)
(-2.8594 -0.0477787 2.36769e-20)
(-2.81469 -0.0541224 6.85892e-20)
(-2.76419 -0.0605168 0)
(-2.7079 -0.0668353 4.20558e-20)
(-2.646 -0.0731272 3.96589e-20)
(-2.57822 -0.0794691 3.69508e-20)
(-2.50457 -0.0856944 0)
(-2.42513 -0.0918129 0)
(-2.33987 -0.0977551 0)
(-2.24884 -0.103417 -1.11606e-20)
(-2.15222 -0.108808 -7.42483e-21)
(-2.05021 -0.113866 0)
(-1.94308 -0.118584 -3.55379e-21)
(-1.83115 -0.122906 3.70071e-21)
(-1.71475 -0.126816 0)
(-1.59429 -0.13027 2.25373e-20)
(-1.47019 -0.13326 5.94742e-20)
(-1.3429 -0.135757 -4.24498e-20)
(-1.21289 -0.137766 -4.80049e-20)
(-1.08065 -0.139289 0)
(-0.94665 -0.140348 0)
(-0.811373 -0.140966 0)
(-0.675285 -0.141182 -1.04807e-19)
(-0.538838 -0.141036 1.12489e-19)
(-0.40243 -0.140568 2.62126e-19)
(-0.26644 -0.139841 -1.50532e-19)
(-0.130946 -0.138978 1.58265e-19)
(0.00435323 -0.138126 1.76438e-19)
(0.138586 -0.137448 0)
(0.269922 -0.136111 0)
(0.397314 -0.133049 -1.91487e-19)
(0.520765 -0.128594 0)
(0.640841 -0.123526 0)
(0.757651 -0.118217 4.27939e-19)
(0.87103 -0.112843 0)
(0.980833 -0.107496 2.22452e-19)
(1.08696 -0.102234 -2.32272e-19)
(1.18935 -0.0970923 0)
(1.28799 -0.0921088 2.36521e-19)
(1.3829 -0.0873004 0)
(1.47409 -0.0826693 0)
(1.56167 -0.078235 -2.51096e-19)
(1.64566 -0.0740091 5.04386e-19)
(1.72614 -0.0699688 -2.56461e-19)
(1.80323 -0.0661142 0)
(1.87703 -0.0624472 0)
(1.94766 -0.0589737 2.60334e-19)
(2.01522 -0.0556835 0)
(2.07982 -0.0525571 2.64088e-19)
(2.14156 -0.0495836 0)
(2.20055 -0.0467572 0)
(2.25687 -0.0440682 0)
(2.31062 -0.0415003 2.71716e-19)
(2.36185 -0.0390398 0)
(2.41063 -0.0366611 -2.73849e-19)
(2.45696 -0.0343229 0)
(2.5008 -0.031972 0)
(2.54203 -0.0295258 5.52478e-19)
(2.58039 -0.0268557 -5.54756e-19)
(2.61545 -0.0237086 0)
(2.64625 -0.0196801 0)
(2.67183 -0.0134713 0)
(2.68883 -0.00276079 1.71683e-18)
(2.70572 0.0190507 0)
(2.69409 0.0586921 -1.18883e-18)
(0.00347564 -0.0940011 -1.11777e-21)
(0.0102379 -0.0765982 5.32072e-19)
(0.00777614 -0.0496845 0)
(0.00320039 -0.0254494 -2.27574e-19)
(-0.00442955 -0.00276529 0)
(-0.0149274 0.0186522 0)
(-0.0281132 0.0387477 1.5689e-22)
(-0.0440573 0.0574719 7.11363e-20)
(-0.0629588 0.0748735 6.81483e-20)
(-0.0850139 0.0911769 6.69127e-20)
(-0.11035 0.106736 0)
(-0.139081 0.121712 0)
(-0.171763 0.135432 -6.77107e-20)
(-0.208459 0.147246 -1.34588e-19)
(-0.24903 0.158554 1.31662e-19)
(-0.293022 0.170296 0)
(-0.340047 0.182859 1.2318e-19)
(-0.389455 0.196132 -5.91379e-20)
(-0.440292 0.209675 0)
(-0.491474 0.222652 1.06891e-19)
(-0.54245 0.233895 5.05732e-20)
(-0.593731 0.242519 -9.60094e-20)
(-0.646099 0.248958 -4.59716e-20)
(-0.699346 0.253575 0)
(-0.752507 0.256466 8.48828e-20)
(-0.805198 0.257616 8.17365e-20)
(-0.857206 0.257074 0)
(-0.908314 0.254926 7.59425e-20)
(-0.95836 0.251306 0)
(-1.00725 0.24639 7.08637e-20)
(-1.05491 0.240381 3.43956e-20)
(-1.10131 0.233498 0)
(-1.14643 0.225956 0)
(-1.19026 0.217958 0)
(-1.23281 0.209685 0)
(-1.27411 0.201298 0)
(-1.31418 0.192932 0)
(-1.35304 0.184701 5.68064e-20)
(-1.39073 0.176688 -8.34549e-20)
(-1.42727 0.168959 0)
(-1.46272 0.161556 0)
(-1.4971 0.154509 0)
(-1.53046 0.14783 1.83343e-22)
(-1.56283 0.141524 5.06577e-20)
(-1.59427 0.135585 9.9429e-20)
(-1.6248 0.130004 -9.7804e-20)
(-1.65448 0.124766 -4.80442e-20)
(-1.68334 0.119857 4.74612e-20)
(-1.71142 0.115255 -1.52716e-22)
(-1.73877 0.110945 4.59009e-20)
(-1.76541 0.106905 0)
(-1.7914 0.10312 4.45833e-20)
(-1.81675 0.0995707 -1.29249e-22)
(-1.84152 0.096243 0)
(-1.86574 0.0931212 0)
(-1.88943 0.0901953 -4.2114e-20)
(-1.91263 0.0874525 0)
(-1.93538 0.0848864 0)
(-1.9577 0.082487 4.02464e-20)
(-1.97962 0.0802505 7.95154e-20)
(-2.00118 0.0781696 -3.92605e-20)
(-2.0224 0.0762427 0)
(-2.04332 0.0744649 3.80869e-20)
(-2.06396 0.072836 0)
(-2.08437 0.0713525 3.67717e-20)
(-2.10457 0.0700148 3.63198e-20)
(-2.12459 0.0688203 -7.13265e-20)
(-2.14448 0.0677695 -3.50081e-20)
(-2.16425 0.06686 0)
(-2.18395 0.0660909 6.77547e-20)
(-2.20361 0.0654589 0)
(-2.22327 0.0649613 9.80917e-20)
(-2.24295 0.0645931 6.41479e-20)
(-2.26269 0.0643475 6.29419e-20)
(-2.28252 0.0642169 -6.17359e-20)
(-2.30248 0.0641918 9.08722e-20)
(-2.32259 0.0642643 0)
(-2.34286 0.0644215 0)
(-2.36332 0.0646497 -5.69441e-20)
(-2.38398 0.0649296 -8.37403e-20)
(-2.40485 0.0652465 0)
(-2.42593 0.0655775 2.6826e-20)
(-2.44722 0.0659025 0)
(-2.46869 0.0661918 -7.68742e-20)
(-2.49034 0.0664254 -2.61549e-22)
(-2.51212 0.0665728 2.78675e-22)
(-2.534 0.0666157 4.79327e-20)
(-2.5559 0.0665255 0)
(-2.57772 0.0662803 -4.59249e-20)
(-2.59938 0.0658334 -3.57748e-22)
(-2.62082 0.0651292 0)
(-2.64199 0.064122 0)
(-2.66277 0.0627833 0)
(-2.68303 0.0610878 4.2012e-20)
(-2.70262 0.0590103 0)
(-2.72141 0.0565226 0)
(-2.73922 0.0536005 0)
(-2.75591 0.0502264 0)
(-2.77131 0.0463937 0)
(-2.78524 0.0421048 3.78499e-20)
(-2.79753 0.0373441 0)
(-2.80802 0.0321062 3.73844e-20)
(-2.81653 0.0264076 3.7e-20)
(-2.82286 0.0202859 -3.66427e-20)
(-2.82678 0.0137487 0)
(-2.82803 0.00681865 -3.59277e-20)
(-2.82631 -0.000525934 0)
(-2.82131 -0.00828378 -3.51593e-20)
(-2.81274 -0.0163731 3.47527e-20)
(-2.80021 -0.024735 1.02445e-19)
(-2.78345 -0.0335015 0)
(-2.76222 -0.0426739 9.98104e-20)
(-2.73653 -0.0521196 3.24886e-20)
(-2.70585 -0.0617902 0)
(-2.67008 -0.0716733 6.26988e-20)
(-2.62911 -0.0818157 6.10007e-20)
(-2.58269 -0.0920358 -8.85537e-20)
(-2.53068 -0.10229 0)
(-2.47291 -0.11257 -2.69516e-20)
(-2.40948 -0.122752 -2.53512e-20)
(-2.34017 -0.132875 -7.12011e-20)
(-2.26508 -0.142818 0)
(-2.18419 -0.152512 0)
(-2.0975 -0.161864 0)
(-2.00512 -0.170765 -1.47424e-20)
(-1.9072 -0.179156 0)
(-1.80396 -0.186966 0)
(-1.69569 -0.19414 2.19074e-21)
(-1.5827 -0.200614 -2.26822e-21)
(-1.46536 -0.206341 0)
(-1.34408 -0.211269 0)
(-1.21931 -0.215368 -3.57652e-20)
(-1.09151 -0.218614 0)
(-0.96116 -0.221002 6.01739e-20)
(-0.828769 -0.222543 6.98319e-20)
(-0.694829 -0.223268 0)
(-0.559829 -0.223219 0)
(-0.424243 -0.222451 -1.12458e-19)
(-0.288514 -0.221035 -4.19361e-21)
(-0.153023 -0.219074 -4.32464e-21)
(-0.0179374 -0.216715 0)
(0.11615 -0.213932 -3.40247e-19)
(0.248392 -0.210525 0)
(0.378225 -0.206481 0)
(0.505088 -0.201884 0)
(0.628547 -0.196614 2.13667e-19)
(0.748549 -0.190575 0)
(0.865204 -0.183945 -4.57955e-19)
(0.978493 -0.176959 -2.41535e-19)
(1.08831 -0.169787 0)
(1.19457 -0.162542 -2.58245e-19)
(1.2972 -0.155312 0)
(1.39617 -0.148159 0)
(1.49148 -0.141144 -8.35459e-19)
(1.58315 -0.134303 5.68536e-19)
(1.67121 -0.127654 0)
(1.75574 -0.121222 5.9275e-19)
(1.8368 -0.11504 -3.0393e-19)
(1.91448 -0.109106 0)
(1.9889 -0.10342 0)
(2.06017 -0.0979821 0)
(2.1284 -0.0927981 -9.62574e-19)
(2.19368 -0.0878604 0)
(2.25613 -0.0831502 -3.29348e-19)
(2.31585 -0.0786544 0)
(2.37295 -0.0743653 0)
(2.4275 -0.0702677 0)
(2.47959 -0.0663428 0)
(2.52931 -0.0625689 0)
(2.57668 -0.058903 0)
(2.62174 -0.0552881 -6.96198e-19)
(2.66443 -0.0516414 0)
(2.70466 -0.0478371 -3.53736e-19)
(2.74222 -0.0436811 1.06673e-18)
(2.77675 -0.0388289 0)
(2.80757 -0.0326831 0)
(2.83411 -0.0239381 -7.28945e-19)
(2.85397 -0.0104156 -7.3993e-19)
(2.87212 0.013534 7.45842e-19)
(2.87739 0.0578256 7.6932e-19)
(-0.00605776 -0.0972606 -1.72101e-18)
(-0.00866105 -0.0668164 -6.45633e-19)
(-0.0182084 -0.0343184 -2.48088e-19)
(-0.0298327 -0.00493615 -9.04322e-20)
(-0.0436238 0.0225706 0)
(-0.0595043 0.0487183 1.29291e-19)
(-0.077501 0.0736828 -5.86884e-20)
(-0.0977426 0.0975374 0)
(-0.120409 0.120354 -5.25196e-20)
(-0.145648 0.142241 0)
(-0.17354 0.163299 9.8483e-20)
(-0.204121 0.183504 0)
(-0.237469 0.202607 4.73574e-20)
(-0.273664 0.220414 9.2601e-20)
(-0.312671 0.23729 -9.02022e-20)
(-0.354193 0.253602 0)
(-0.397769 0.26948 -8.48065e-20)
(-0.44282 0.284758 0)
(-0.488721 0.29907 0)
(-0.534909 0.311912 -7.60322e-20)
(-0.581043 0.322723 0)
(-0.627069 0.331101 2.3373e-23)
(-0.673067 0.337078 0)
(-0.718935 0.340765 0)
(-0.764439 0.342211 -7.74599e-25)
(-0.809393 0.341515 -6.06693e-20)
(-0.853671 0.338828 -5.85729e-20)
(-0.897187 0.334348 -5.66406e-20)
(-0.939882 0.328307 0)
(-0.981716 0.320948 -1.06262e-19)
(-1.02266 0.312516 0)
(-1.06271 0.303247 -5.00734e-20)
(-1.10186 0.293367 0)
(-1.14009 0.283082 0)
(-1.1774 0.272578 4.62385e-20)
(-1.21381 0.262016 0)
(-1.24931 0.251532 -4.40969e-20)
(-1.28391 0.241237 -6.79983e-23)
(-1.31761 0.231218 8.4534e-20)
(-1.35043 0.221538 -8.27777e-20)
(-1.38238 0.212245 0)
(-1.41346 0.203367 0)
(-1.44371 0.194921 -3.90787e-20)
(-1.47313 0.186913 0)
(-1.50176 0.17934 -3.79088e-20)
(-1.52961 0.172192 3.73019e-20)
(-1.55671 0.165456 3.67207e-20)
(-1.58308 0.159115 0)
(-1.60876 0.15315 -3.56234e-20)
(-1.63378 0.147542 -3.51019e-20)
(-1.65815 0.142269 6.90869e-20)
(-1.68192 0.137312 -3.41017e-20)
(-1.7051 0.132653 -3.3619e-20)
(-1.72772 0.128273 0)
(-1.74983 0.124157 0)
(-1.77143 0.12029 3.22195e-20)
(-1.79256 0.11666 0)
(-1.81324 0.113258 0)
(-1.83351 0.110073 -6.17284e-20)
(-1.85338 0.107099 -6.08341e-20)