/*--------------------------------*- C++ -*----------------------------------*\
| =========                 |                                                 |
| \\      /  F ield         | OpenFOAM: The Open Source CFD Toolbox           |
|  \\    /   O peration     | Version:  5.0                                   |
|   \\  /    A nd           | Web:      www.OpenFOAM.org                      |
|    \\/     M anipulation  |                                                 |
\*---------------------------------------------------------------------------*/
FoamFile
{
    version     2.0;
    format      ascii;
    class       volScalarField;
    location    "287";
    object      epsilon;
}
// * * * * * * * * * * * * * * * * * * * * * * * * * * * * * * * * * * * * * //

dimensions      [0 2 -3 0 0 0 0];

internalField   nonuniform List<scalar> 
12225
(
285.516
270.697
257.922
243.802
232.472
223.072
216.825
212.693
212.739
213.959
217.23
220.909
228.087
232.645
241.416
246.058
256.3
254.721
52.4945
91.879
106.972
114.746
124.841
136.779
152.682
169.898
191.083
210.923
235.171
255.465
280.944
299.294
324.504
339.406
363.181
378.311
20.3233
34.8565
44.6743
50.47
55.3942
59.6081
64.6601
69.6443
76.3078
83.1832
91.4172
99.3115
108.139
116.911
125.483
135.224
142.394
153.726
15.3482
19.6977
24.1121
27.5692
30.4962
32.8703
35.1532
37.2943
39.4992
41.9178
44.331
47.1997
49.6718
53.0311
55.3934
59.2242
61.342
65.6296
14.6508
15.8626
17.3668
19.0741
20.6378
22.0262
23.2452
24.4312
25.4429
26.5943
27.5216
28.7565
29.6292
30.9816
31.8062
33.2633
34.0314
35.6473
14.7068
14.8769
15.2014
15.8668
16.5665
17.2869
17.9233
18.5841
19.1187
19.7336
20.1926
20.798
21.2073
21.8207
22.1951
22.8253
23.1559
23.8606
14.7421
14.6201
14.6248
14.737
14.9297
15.2191
15.4911
15.8088
16.0708
16.3824
16.6178
16.9197
17.1303
17.4262
17.6143
17.9124
18.0688
18.4082
14.7626
14.5866
14.4637
14.3812
14.3669
14.39
14.4381
14.5337
14.6185
14.7365
14.8307
14.9562
15.0474
15.1758
15.2601
15.3924
15.4615
15.6218
14.7666
14.5908
14.4346
14.2963
14.1849
14.1044
14.0398
14.0066
13.9814
13.9785
13.9808
13.9917
14.0036
14.0298
14.0459
14.0808
14.0964
14.1506
14.7663
14.5939
14.432
14.282
14.143
14.0219
13.9115
13.8194
13.737
13.6698
13.6102
13.5633
13.5181
13.4872
13.4515
13.4342
13.4016
13.4007
14.7658
14.5945
14.4321
14.2803
14.1362
14.0032
13.8782
13.7644
13.6582
13.5629
13.4736
13.3952
13.3198
13.2561
13.1916
13.1408
13.0838
13.0451
14.7657
14.5943
14.4321
14.2798
14.1353
13.9999
13.8715
13.7518
13.6385
13.5337
13.4341
13.343
13.2557
13.1771
13.1003
13.0328
12.9647
12.9074
14.7657
14.5941
14.432
14.2794
14.1349
13.9989
13.8699
13.7485
13.6332
13.525
13.422
13.3257
13.2338
13.1484
13.0663
12.9906
12.9172
12.8502
14.7657
14.5939
14.4318
14.279
14.1346
13.9983
13.8692
13.7472
13.6315
13.5223
13.4184
13.3204
13.227
13.139
13.055
12.9759
12.9002
12.8291
14.7657
14.5938
14.4317
14.2787
14.1342
13.9977
13.8686
13.7464
13.6307
13.5211
13.4171
13.3185
13.2249
13.136
13.0516
12.9714
12.8951
12.8227
14.7657
14.5937
14.4315
14.2785
14.1339
13.9973
13.8681
13.7458
13.63
13.5202
13.4161
13.3174
13.2236
13.1346
13.05
12.9696
12.8931
12.8204
14.7657
14.5937
14.4315
14.2783
14.1337
13.997
13.8677
13.7453
13.6294
13.5195
13.4154
13.3165
13.2227
13.1336
13.0489
12.9684
12.8918
12.819
14.7657
14.5937
14.4314
14.2782
14.1335
13.9968
13.8674
13.7449
13.629
13.5191
13.4148
13.3159
13.222
13.1328
13.0481
12.9675
12.8908
12.8179
14.7657
14.5937
14.4314
14.2782
14.1335
13.9967
13.8673
13.7448
13.6288
13.5189
13.4146
13.3156
13.2217
13.1325
13.0477
12.967
12.8903
12.8174
14.7657
14.5937
14.4314
14.2782
14.1336
13.9968
13.8674
13.745
13.629
13.519
13.4148
13.3158
13.2219
13.1327
13.0479
12.9673
12.8906
12.8177
14.7657
14.5937
14.4315
14.2784
14.1337
13.997
13.8677
13.7453
13.6294
13.5195
13.4154
13.3166
13.2229
13.1338
13.0493
12.9689
12.8926
12.8199
14.7657
14.5937
14.4316
14.2785
14.1341
13.9974
13.8685
13.7464
13.6312
13.522
13.419
13.3213
13.2293
13.1418
13.0594
12.981
12.9073
12.8368
14.7658
14.5937
14.4318
14.2788
14.1353
14.0002
13.8742
13.756
13.6463
13.5435
13.4485
13.3591
13.277
13.1992
13.1282
13.0601
12.9988
12.9386
14.7655
14.5928
14.4328
14.2844
14.1515
14.0321
13.929
13.8375
13.7593
13.6894
13.6306
13.5769
13.5328
13.4905
13.4574
13.423
13.3989
13.3693
14.7592
14.5932
14.4603
14.3602
14.3029
14.2766
14.2805
14.2921
14.3211
14.3531
14.3959
14.4346
14.4825
14.5217
14.572
14.609
14.6617
14.694
14.7213
14.6911
14.754
14.9176
15.1828
15.4611
15.7476
16.012
16.2724
16.5039
16.7362
16.9387
17.1508
17.3311
17.5311
17.6938
17.8891
18.0362
14.7477
15.5124
16.5473
17.6841
18.7044
19.5676
20.3373
20.9969
21.6196
22.1663
22.7191
23.2111
23.7403
24.2048
24.7333
25.1833
25.7257
26.1668
15.9871
20.9921
25.0238
27.7605
29.7847
31.3586
32.7773
34.0582
35.3599
36.6169
37.9762
39.2981
40.7628
42.1472
43.7196
45.1758
46.8862
48.3612
29.9032
47.2183
54.8697
58.6737
61.6144
64.4326
67.5816
70.9789
74.7405
78.717
82.9887
87.3487
91.9103
96.4562
101.108
105.63
110.184
114.586
165.798
160.075
154.899
149.565
144.479
139.678
135.615
132.109
129.27
126.974
125.32
124.045
123.341
122.826
122.843
122.961
123.286
123.83
0.155078
0.199478
0.373035
0.526233
0.671959
0.836116
1.02655
1.25383
1.52423
1.83693
2.18624
2.56391
2.96195
3.37303
3.79122
4.21134
4.62896
5.03971
5.43959
5.8236
6.18728
6.52394
6.82854
7.09294
7.31276
7.48171
7.59956
7.65613
7.65766
7.61751
7.59365
7.58947
7.98334
8.33721
8.69594
8.94869
8.72383
8.92085
9.15948
9.36058
40.1944
40.9007
41.8222
46.1269
48.6902
52.4831
55.9066
59.7813
63.6856
67.8292
72.1113
76.5843
81.2269
86.0539
91.063
96.2596
101.646
107.225
113
118.973
125.146
131.522
138.1
144.884
151.873
159.067
166.467
174.071
181.877
189.885
198.091
206.494
215.086
223.868
232.83
241.97
251.279
260.753
270.38
280.157
290.071
300.115
310.275
320.545
330.907
341.354
351.867
362.437
373.042
383.671
394.299
404.905
415.465
425.953
436.343
446.612
456.749
466.775
476.77
486.581
496.271
505.796
515.158
524.332
533.307
542.066
550.593
558.876
566.898
574.646
582.105
589.265
596.108
602.627
608.806
614.638
620.108
625.211
629.936
634.278
638.226
641.775
644.915
647.645
649.958
651.855
653.326
654.365
655.038
655.322
655.114
654.437
653.314
651.877
650.098
647.846
645.22
642.207
638.823
635.077
630.98
626.546
621.788
616.711
611.33
605.658
599.71
593.497
587.037
580.343
573.432
566.316
559.013
551.538
543.906
536.134
528.238
520.233
512.139
503.977
495.778
487.618
479.971
475.24
472.035
468.925
465.786
462.61
459.401
456.166
452.909
449.631
446.327
442.981
439.557
435.978
432.082
427.425
421.123
396.061
0.798913
0.49889
0.505344
0.570503
0.671271
0.802431
0.966107
1.16474
1.3989
1.66662
1.96389
2.28584
2.62759
2.98482
3.35378
3.73141
4.11495
4.50209
4.89055
5.27822
5.66288
6.04234
6.41436
6.77665
7.12668
7.47361
7.84717
8.25359
8.72012
9.28572
9.99493
10.8499
11.8485
12.9939
14.1166
15.358
16.1762
18.6078
19.9101
21.8645
24.9748
25.9131
27.4478
29.183
30.794
32.5674
34.3478
36.2226
38.1456
40.1428
42.2034
44.335
46.5359
48.8089
51.1544
53.5737
56.0674
58.6366
61.2816
64.003
66.8012
69.6762
72.6282
75.6571
78.7624
81.9439
85.2008
88.5324
91.9376
95.4153
98.9641
102.582
106.268
110.02
113.835
117.711
121.645
125.635
129.677
133.768
137.904
142.082
146.297
150.545
154.821
159.12
163.436
167.764
172.097
176.429
180.752
185.059
189.341
193.594
197.812
201.997
206.159
210.326
214.555
218.714
222.824
226.873
230.858
234.772
238.608
242.361
246.025
249.594
253.063
256.425
259.676
262.81
265.822
268.707
271.46
274.078
276.555
278.888
281.074
283.108
284.988
286.71
288.271
289.67
290.904
291.972
292.873
293.607
294.18
294.581
294.796
294.833
294.7
294.425
293.997
293.391
292.627
291.704
290.625
289.394
288.015
286.492
284.829
283.03
281.098
279.04
276.859
274.561
272.152
269.637
267.021
264.31
261.51
258.628
255.668
252.638
249.544
246.391
243.188
239.943
236.668
233.394
230.247
227.654
225.41
223.23
221.055
218.875
216.688
214.5
212.311
210.126
207.946
205.774
203.608
201.453
199.291
197.183
195.09
191.623
1.7133
0.889319
0.802294
0.835851
0.920756
1.04467
1.20519
1.40172
1.6329
1.89596
2.18697
2.50168
2.83608
3.1869
3.55158
3.92834
4.31596
4.71376
5.12143
5.5391
5.96724
6.40704
6.86068
7.33237
7.82992
8.35834
8.91428
9.51488
10.1733
10.8986
11.6922
12.5379
13.4394
14.39
15.3639
16.4357
17.5703
18.8778
20.1076
21.4533
22.8273
24.0403
25.3713
26.7515
28.1594
29.6273
31.143
32.7145
34.3376
36.0155
37.7475
39.535
41.3785
43.2786
45.2359
47.251
49.3243
51.4562
53.647
55.8972
58.2067
60.5757
63.004
65.4915
68.038
70.6431
73.3063
76.027
78.8045
81.638
84.5263
87.4682
90.4626
93.5078
96.6023
99.7441
102.931
106.162
109.433
112.743
116.088
119.466
122.874
126.308
129.765
133.241
136.731
140.233
143.742
147.253
150.763
154.267
157.761
161.245
164.716
168.175
171.626
175.075
178.509
181.903
185.256
188.561
191.814
195.01
198.144
201.21
204.204
207.122
209.958
212.708
215.367
217.932
220.397
222.759
225.014
227.158
229.188
231.1
232.893
234.561
236.104
237.518
238.801
239.952
240.968
241.849
242.595
243.203
243.676
244.008
244.186
244.229
244.139
243.921
243.573
243.086
242.468
241.721
240.847
239.848
238.728
237.49
236.137
234.673
233.101
231.425
229.649
227.777
225.815
223.765
221.633
219.424
217.142
214.792
212.379
209.908
207.385
204.813
202.2
199.552
196.879
194.202
191.58
189.149
186.866
184.634
182.416
180.203
177.995
175.793
173.6
171.42
169.258
167.117
165.006
162.942
160.938
159.086
157.427
155.802
2.7722
1.33052
1.14029
1.14231
1.21965
1.34468
1.50935
1.71044
1.94546
2.21143
2.50482
2.822
3.15965
3.51518
3.88674
4.27333
4.6746
5.09083
5.52275
5.97156
6.43875
6.9262
7.43607
7.9709
8.5334
9.12566
9.74948
10.4093
11.1089
11.8501
12.6322
13.4527
14.3128
15.2126
16.1827
17.1796
18.2273
19.3274
20.457
21.6311
22.8359
24.0625
25.3436
26.6675
28.0325
29.4447
30.9046
32.4142
33.9735
35.5838
37.2455
38.9596
40.7267
42.5475
44.4226
46.3525
48.3377
50.3787
52.4759
54.6296
56.8403
59.108
61.4329
63.8151
66.2546
68.7511
71.3044
73.9142
76.5799
79.3009
82.0763
84.9053
87.7868
90.7195
93.7019
96.7326
99.8096
102.931
106.095
109.299
112.54
115.816
119.124
122.461
125.824
129.208
132.612
136.03
139.459
142.897
146.337
149.779
153.217
156.651
160.076
163.493
166.9
170.29
173.654
176.982
180.268
183.509
186.697
189.829
192.899
195.902
198.833
201.687
204.46
207.146
209.742
212.242
214.644
216.941
219.132
221.211
223.176
225.023
226.75
228.353
229.83
231.179
232.397
233.482
234.434
235.252
235.933
236.479
236.889
237.154
237.266
237.261
237.118
236.843
236.437
235.898
235.23
234.433
233.512
232.47
231.308
230.031
228.641
227.144
225.541
223.837
222.037
220.145
218.165
216.102
213.96
211.745
209.46
207.111
204.702
202.24
199.728
197.172
194.578
191.952
189.303
186.647
184.019
181.477
179.013
176.587
174.18
171.784
169.399
167.027
164.672
162.338
160.029
157.754
155.521
153.349
151.269
149.366
147.688
146.224
3.84519
1.78567
1.48682
1.45673
1.52317
1.64626
1.81242
2.01591
2.25317
2.52102
2.81619
3.13551
3.47614
3.83583
4.21309
4.60712
5.01782
5.44566
5.89156
6.35679
6.84286
7.35138
7.88399
8.44226
9.02756
9.64103
10.2838
10.9573
11.6633
12.4033
13.1794
13.9916
14.8399
15.723
16.6499
17.6233
18.6424
19.7068
20.8135
21.9628
23.1524
24.3833
25.6603
26.9825
28.3496
29.7637
31.2259
32.7377
34.3
35.9139
37.5802
39.3
41.0741
42.9035
44.7895
46.7322
48.7323
50.7907
52.9078
55.0845
57.3211
59.6184
61.9765
64.3959
66.8769
69.4194
72.0236
74.6893
77.4162
80.2039
83.0519
85.9594
88.9255
91.9491
95.0289
98.1635
101.351
104.59
107.877
111.212
114.59
118.01
121.468
124.962
128.487
132.041
135.62
139.219
142.835
146.465
150.103
153.746
157.39
161.031
164.665
168.287
171.891
175.472
179.021
182.533
186.001
189.419
192.782
196.084
199.319
202.482
205.567
208.569
211.483
214.303
217.025
219.643
222.154
224.552
226.833
228.995
231.032
232.941
234.72
236.365
237.873
239.243
240.471
241.557
242.499
243.296
243.947
244.452
244.81
245.005
245.058
244.975
244.745
244.374
243.862
243.21
242.421
241.497
240.442
239.259
237.951
236.522
234.976
233.317
231.549
229.677
227.706
225.64
223.484
221.244
218.923
216.528
214.064
211.536
208.949
206.308
203.62
200.889
198.121
195.324
192.505
189.678
186.863
184.093
181.368
178.673
175.999
173.341
170.7
168.078
165.481
162.913
160.38
157.891
155.461
153.111
150.873
148.826
147.002
145.363
4.87379
2.22928
1.82263
1.75987
1.81325
1.93176
2.09658
2.29964
2.53634
2.80321
3.09717
3.41534
3.75523
4.11484
4.4928
4.88838
5.30144
5.73235
6.18192
6.65123
7.14158
7.65438
8.19101
8.75279
9.34095
9.95665
10.6011
11.2757
11.9821
12.7225
13.499
14.3133
15.1662
16.0585
16.9918
17.9673
18.986
20.0488
21.156
22.3078
23.5045
24.7469
26.0365
27.3738
28.7595
30.1946
31.6806
33.2188
34.8104
36.4567
38.1589
39.9182
41.7357
43.6124
45.5494
47.548
49.6094
51.7348
53.9252
56.1816
58.5049
60.8959
63.3554
65.8842
68.4826
71.1512
73.8902
76.6998
79.5799
82.5303
85.5507
88.6403
91.7984
95.024
98.3158
101.672
105.092
108.572
112.11
115.705
119.354
123.052
126.797
130.586
134.414
138.278
142.174
146.096
150.041
154.004
157.98
161.964
165.951
169.935
173.911
177.872
181.813
185.726
189.603
193.439
197.226
200.959
204.629
208.232
211.759
215.206
218.565
221.831
224.998
228.059
231.01
233.844
236.557
239.144
241.599
243.92
246.1
248.138
250.029
251.771
253.359
254.793
256.069
257.186
258.143
258.938
259.572
260.043
260.345
260.473
260.454
260.275
259.936
259.441
258.792
257.989
257.038
255.939
254.698
253.318
251.804
250.158
248.387
246.495
244.487
242.368
240.144
237.819
235.4
232.893
230.302
227.634
224.894
222.09
219.225
216.307
213.342
210.335
207.293
204.222
201.131
198.03
194.935
191.864
188.824
185.81
182.817
179.846
176.897
173.975
171.085
168.232
165.424
162.672
159.991
157.405
154.947
152.681
150.627
148.693
5.81948
2.64396
2.13403
2.03835
2.07695
2.18853
2.34936
2.54916
2.78234
3.04511
3.33445
3.64772
3.98269
4.33758
4.71115
5.1027
5.51209
5.93959
6.3859
6.85202
7.33914
7.8486
8.3818
8.94013
9.52497
10.1378
10.78
11.4533
12.1595
12.9005
13.6786
14.4952
15.3517
16.2489
17.1878
18.1693
19.1943
20.2641
21.3798
22.5423
23.7525
25.0115
26.3206
27.6807
29.0929
30.5586
32.0793
33.6564
35.2915
36.9862
38.742
40.5605
42.4432
44.3917
46.4074
48.492
50.6471
52.8742
55.1748
57.5502
60.0018
62.5308
65.1384
67.8256
70.5934
73.4424
76.3734
79.3865
82.4822
85.6603
88.9207
92.2627
95.6858
99.1888
102.77
106.429
110.163
113.97
117.847
121.791
125.8
129.87
133.997
138.177
142.406
146.678
150.99
155.336
159.71
164.106
168.52
172.945
177.373
181.8
186.217
190.617
194.993
199.337
203.641
207.897
212.098
216.236
220.304
224.294
228.198
232.01
235.722
239.328
242.819
246.19
249.435
252.547
255.519
258.348
261.028
263.553
265.919
268.122
270.159
272.025
273.718
275.236
276.575
277.735
278.714
279.511
280.126
280.559
280.794
280.853
280.737
280.442
279.971
279.325
278.507
277.52
276.369
275.056
273.586
271.964
270.194
268.282
266.234
264.054
261.748
259.324
256.786
254.141
251.397
248.558
245.631
242.625
239.544
236.395
233.186
229.923
226.612
223.261
219.875
216.462
213.031
209.59
206.152
202.729
199.33
195.955
192.604
189.279
185.983
182.721
179.498
176.322
173.201
170.147
167.176
164.312
161.588
159.057
156.718
154.44
6.65486
3.01644
2.41082
2.28265
2.30517
2.40775
2.56218
2.75614
2.98309
3.23893
3.5206
3.82567
4.15214
4.49846
4.86355
5.24682
5.64813
6.06777
6.50644
6.96512
7.44501
7.94746
8.47391
9.02581
9.60454
10.212
10.8498
11.5196
12.2234
12.9628
13.7399
14.5561
15.413
16.3117
17.2533
18.2389
19.2698
20.3474
21.473
22.6481
23.8739
25.1518
26.4835
27.8702
29.3135
30.8152
32.377
34.0009
35.6888
37.4427
39.2644
41.1561
43.1197
45.1573
47.2709
49.4625
51.7342
54.0881
56.5259
59.0498
61.6613
64.3623
67.1544
70.0389
73.0173
76.0905
79.2596
82.5252
85.8877
89.3473
92.9039
96.5572
100.306
104.15
108.087
112.116
116.234
120.439
124.728
129.098
133.544
138.064
142.652
147.304
152.014
156.777
161.586
166.437
171.322
176.235
181.168
186.114
191.065
196.013
200.95
205.867
210.755
215.606
220.41
225.159
229.844
234.456
238.987
243.428
247.77
252.005
256.124
260.121
263.986
267.712
271.293
274.721
277.99
281.093
284.024
286.78
289.353
291.74
293.937
295.94
297.746
299.352
300.756
301.957
302.952
303.743
304.328
304.702
304.862
304.827
304.591
304.155
303.522
302.694
301.676
300.47
299.081
297.514
295.775
293.868
291.799
289.575
287.202
284.686
282.035
279.255
276.353
273.338
270.215
266.993
263.679
260.28
256.805
253.26
249.653
245.992
242.284
238.535
234.755
230.949
227.126
223.295
219.466
215.65
211.856
208.085
204.343
200.632
196.957
193.322
189.736
186.205
182.74
179.352
176.059
172.885
169.858
167.024
164.365
161.721
7.36333
3.33815
2.64655
2.48697
2.49257
2.58442
2.73036
2.91623
3.13467
3.38122
3.65281
3.94713
4.26241
4.59731
4.95097
5.32293
5.71311
6.12166
6.54947
6.99765
7.46748
7.96039
8.47798
9.02201
9.5946
10.1964
10.829
11.4941
12.1935
12.9291
13.7026
14.5159
15.3704
16.2676
17.2091
18.1962
19.2304
20.3134
21.4471
22.6332
23.874
25.1725
26.5295
27.9465
29.4247
30.9669
32.5757
34.2534
36.0024
37.8253
39.7245
41.7024
43.7617
45.9049
48.1345
50.4533
52.8639
55.3687
57.9702
60.671
63.4733
66.3794
69.3913
72.5109
75.74
79.08
82.5321
86.0974
89.7763
93.5693
97.4764
101.497
105.63
109.875
114.23
118.693
123.261
127.932
132.701
137.565
142.52
147.56
152.681
157.876
163.14
168.466
173.846
179.274
184.741
190.24
195.761
201.296
206.837
212.372
217.893
223.39
228.851
234.268
239.63
244.926
250.148
255.284
260.324
265.26
270.081
274.777
279.34
283.76
288.028
292.136
296.076
299.841
303.422
306.813
310.008
313.001
315.786
318.359
320.715
322.851
324.762
326.447
327.903
329.129
330.124
330.888
331.421
331.713
331.776
331.614
331.227
330.618
329.789
328.745
327.488
326.025
324.36
322.499
320.448
318.214
315.804
313.224
310.482
307.586
304.544
301.363
298.052
294.62
291.074
287.424
283.677
279.842
275.928
271.943
267.895
263.793
259.645
255.458
251.24
247.001
242.746
238.487
234.231
229.988
225.768
221.575
217.413
213.29
209.208
205.176
201.201
197.29
193.456
189.709
186.069
182.557
179.199
176.032
173.026
170.007
7.93588
3.60451
2.83845
2.64826
2.63736
2.71703
2.85271
3.02866
3.23674
3.47219
3.73188
4.01365
4.31585
4.63719
4.97724
5.33603
5.71405
6.11246
6.53087
6.97
7.43099
7.91519
8.42407
8.95913
9.52172
10.1137
10.7367
11.3928
12.0838
12.8117
13.5785
14.3858
15.2356
16.1296
17.0697
18.0578
19.0959
20.186
21.3304
22.531
23.7901
25.1094
26.4916
27.9397
29.4572
31.046
32.7092
34.4497
36.2706
38.1749
40.1655
42.2456
44.4183
46.6868
49.0544
51.5243
54.0997
56.7838
59.5797
62.4904
65.5188
68.6677
71.9396
75.3369
78.8616
82.5157
86.3005
90.2173
94.2667
98.4492
102.765
107.213
111.792
116.501
121.339
126.301
131.386
136.589
141.907
147.334
152.866
158.496
164.218
170.025
175.91
181.864
187.88
193.949
200.06
206.206
212.375
218.557
224.741
230.916
237.072
243.196
249.276
255.302
261.261
267.143
272.934
278.625
284.204
289.659
294.981
300.157
305.178
310.034
314.715
319.211
323.514
327.615
331.506
335.181
338.631
341.85
344.834
347.577
350.073
352.321
354.315
356.054
357.535
358.758
359.722
360.427
360.871
361.052
360.98
360.653
360.076
359.254
358.189
356.886
355.35
353.587
351.603
349.405
347
344.396
341.601
338.622
335.469
332.151
328.675
325.052
321.291
317.401
313.393
309.274
305.056
300.747
296.356
291.894
287.37
282.791
278.168
273.509
268.823
264.117
259.4
254.682
249.97
245.275
240.605
235.966
231.366
226.808
222.302
217.852
213.468
209.159
204.935
200.811
196.802
192.931
189.22
185.699
182.33
178.93
8.37136
3.814
2.98592
2.76714
2.74013
2.80675
2.93087
3.09545
3.29178
3.51479
3.76118
4.02931
4.31828
4.62804
4.95714
5.30499
5.6715
6.05656
6.4609
6.88598
7.33312
7.80368
8.29912
8.82097
9.37087
9.95077
10.5627
11.2086
11.8903
12.6097
13.369
14.1701
15.0154
15.9069
16.8468
17.8377
18.8817
19.9815
21.1397
22.3589
23.6419
24.9915
26.4111
27.9036
29.4706
31.116
32.8452
34.6627
36.5718
38.576
40.6788
42.884
45.1955
47.6171
50.1527
52.8063
55.5818
58.4829
61.5135
64.6772
67.9774
71.4174
75.0001
78.7284
82.6046
86.6307
90.8085
95.1391
99.6232
104.261
109.052
113.996
119.092
124.336
129.727
135.26
140.933
146.741
152.678
158.739
164.916
171.204
177.593
184.077
190.645
197.289
203.999
210.763
217.572
224.414
231.277
238.149
245.018
251.87
258.694
265.476
272.202
278.86
285.437
291.919
298.293
304.548
310.67
316.647
322.467
328.119
333.591
338.871
343.95
348.817
353.462
357.877
362.053
365.982
369.658
373.072
376.22
379.096
381.696
384.016
386.052
387.803
389.266
390.441
391.329
391.928
392.239
392.264
392.007
391.467
390.653
389.57
388.222
386.614
384.751
382.642
380.293
377.712
374.909
371.89
368.667
365.247
361.641
357.859
353.911
349.808
345.559
341.175
336.668
332.048
327.325
322.51
317.612
312.644
307.613
302.531
297.407
292.25
287.069
281.873
276.671
271.472
266.285
261.119
255.983
250.883
245.828
240.824
235.878
230.998
226.192
221.471
216.846
212.329
207.939
203.693
199.613
195.724
191.981
188.201
8.67529
3.96813
3.09074
2.84651
2.80378
2.85687
2.96848
3.12056
3.30426
3.51499
3.75059
4.00784
4.28496
4.58037
4.89373
5.22542
5.57575
5.9453
6.33538
6.74676
7.18055
7.63808
8.12085
8.6305
9.16879
9.73765
10.3391
10.9752
11.6482
12.3602
13.1137
13.911
14.7548
15.6475
16.5919
17.5909
18.6475
19.7648
20.9457
22.1936
23.5122
24.9053
26.3754
27.9248
29.557
31.2801
33.0983
35.0166
37.041
39.175
41.4229
43.7891
46.2781
48.8947
51.6434
54.5289
57.5557
60.7284
64.0513
67.5285
71.1639
74.9613
78.9238
83.0545
87.3559
91.83
96.4784
101.302
106.301
111.476
116.825
122.348
128.041
133.902
139.927
146.112
152.452
158.941
165.571
172.337
179.23
186.241
193.361
200.58
207.887
215.272
222.722
230.225
237.77
245.342
252.928
260.515
268.088
275.633
283.135
290.581
297.954
305.242
312.428
319.499
326.441
333.24
339.881
346.353
352.641
358.733
364.618
370.282
375.715
380.907
385.846
390.524
394.933
399.062
402.907
406.459
409.712
412.663
415.305
417.636
419.653
421.354
422.738
423.804
424.553
424.986
425.105
424.915
424.411
423.6
422.491
421.092
419.405
417.437
415.196
412.689
409.926
406.915
403.666
400.189
396.494
392.592
388.494
384.211
379.754
375.135
370.366
365.458
360.423
355.272
350.018
344.672
339.244
333.746
328.189
322.583
316.939
311.267
305.576
299.875
294.174
288.482
282.807
277.16
271.548
265.98
260.463
255.005
249.614
244.297
239.064
233.925
228.891
223.976
219.196
214.568
210.111
205.846
201.725
197.57
8.85985
4.07144
3.15667
2.89039
2.83266
2.87203
2.97136
3.11296
3.28652
3.48607
3.70744
3.94912
4.21017
4.49005
4.78884
5.10638
5.44296
5.79918
6.17597
6.57434
6.99553
7.44095
7.91219
8.41101
8.93934
9.49925
10.0929
10.7227
11.3911
12.1007
12.8543
13.6549
14.5053
15.4088
16.3685
17.3881
18.4714
19.6225
20.8443
22.1405
23.5141
24.966
26.5045
28.1367
29.8691
31.7067
33.6547
35.7188
37.9053
40.2194
42.6662
45.2512
47.9797
50.8572
53.8891
57.0805
60.4368
63.9628
67.6633
71.5427
75.6053
79.8547
84.2942
88.9267
93.7543
98.7787
104.001
109.421
115.039
120.853
126.862
133.063
139.452
146.025
152.777
159.702
166.793
174.043
181.443
188.984
196.656
204.45
212.353
220.354
228.441
236.601
244.819
253.083
261.377
269.687
277.998
286.295
294.561
302.782
310.94
319.021
327.008
334.885
342.637
350.248
357.703
364.988
372.087
378.987
385.674
392.135
398.357
404.328
410.036
415.47
420.621
425.478
430.032
434.277
438.203
441.805
445.078
448.016
450.615
452.872
454.785
456.353
457.574
458.45
458.982
459.172
459.027
458.544
457.718
456.567
455.098
453.317
451.229
448.842
446.165
443.206
439.976
436.485
432.744
428.764
424.557
420.133
415.506
410.688
405.691
400.527
395.21
389.753
384.167
378.466
372.662
366.768
360.794
354.754
348.659
342.519
336.346
330.151
323.943
317.732
311.528
305.339
299.175
293.045
286.958
280.922
274.945
269.035
263.2
257.449
251.79
246.235
240.794
235.481
230.31
225.299
220.463
215.822
211.326
206.807
8.9197
4.12372
3.18615
2.90245
2.83221
2.86158
2.95069
3.0796
3.23893
3.42372
3.63113
3.85942
4.10735
4.37434
4.66025
4.96521
5.28962
5.63419
5.99985
6.38776
6.79927
7.23596
7.69963
8.19229
8.71615
9.2736
9.8671
10.4994
11.1733
11.892
12.6591
13.4787
14.3539
15.2882
16.2853
17.349
18.4819
19.6864
20.97
22.3389
23.7993
25.3586
27.022
28.7961
30.6879
32.7036
34.8499
37.1338
39.5619
42.1404
44.8758
47.7748
50.8437
54.0888
57.5158
61.1302
64.9374
68.9425
73.1502
77.5648
82.1899
87.0289
92.0844
97.3582
102.852
108.565
114.498
120.65
127.018
133.6
140.393
147.39
154.588
161.979
169.556
177.312
185.238
193.324
201.56
209.933
218.434
227.049
235.765
244.569
253.446
262.381
271.36
280.366
289.385
298.399
307.393
316.349
325.251
334.081
342.824
351.461
359.976
368.353
376.574
384.625
392.489
400.151
407.595
414.809
421.777
428.486
434.924
441.078
446.937
452.489
457.726
462.637
467.214
471.449
475.335
478.867
482.039
484.847
487.287
489.357
491.056
492.384
493.338
493.923
494.14
493.998
493.496
492.621
491.396
489.826
487.921
485.686
483.128
480.257
477.082
473.614
469.865
465.845
461.566
457.041
452.282
447.302
442.115
436.733
431.17
425.44
419.557
413.533
407.383
401.12
394.758
388.308
381.785
375.2
368.565
361.892
355.193
348.478
341.758
335.043
328.342
321.664
315.02
308.417
301.865
295.371
288.946
282.595
276.328
270.153
264.08
258.118
252.28
246.577
241.024
235.637
230.428
225.419
220.558
215.691
8.9015
4.13386
3.18588
2.89275
2.81289
2.82937
2.90494
3.02108
3.16838
3.34147
3.53732
3.75418
3.99104
4.24743
4.52332
4.81899
5.13507
5.47244
5.83222
6.21574
6.62459
7.06063
7.52602
8.02324
8.55531
9.12538
9.73594
10.3902
11.0916
11.8436
12.6493
13.5105
14.4326
15.4219
16.4842
17.6251
18.8509
20.1689
21.5845
23.1044
24.7364
26.4886
28.3681
30.3826
32.5398
34.8475
37.3133
39.9452
42.7509
45.7378
48.914
52.2872
55.8651
59.6535
63.6577
67.8827
72.333
77.0127
81.9254
87.0742
92.4613
98.0883
103.956
110.064
116.411
122.996
129.815
136.866
144.144
151.642
159.355
167.276
175.396
183.708
192.2
200.862
209.684
218.654
227.758
236.985
246.319
255.748
265.255
274.827
284.447
294.099
303.768
313.435
323.085
332.7
342.264
351.758
361.166
370.469
379.651
388.695
397.582
406.298
414.824
423.145
431.245
439.11
446.723
454.072
461.142
467.921
474.395
480.555
486.387
491.882
497.031
501.824
506.255
510.315
513.999
517.302
520.219
522.746
524.882
526.624
527.972
528.928
529.487
529.662
529.458
528.867
527.886
526.532
524.812
522.736
520.31
517.543
514.443
511.021
507.288
503.255
498.934
494.338
489.48
484.373
479.03
473.466
467.695
461.73
455.585
449.277
442.818
436.224
429.507
422.684
415.766
408.768
401.702
394.582
387.42
380.229
373.018
365.801
358.587
351.386
344.208
337.062
329.958
322.904
315.909
308.981
302.128
295.359
288.682
282.105
275.638
269.29
263.073
256.998
251.08
245.333
239.767
234.405
229.194
224.004
8.84279
4.12367
3.16938
2.86369
2.77159
2.77713
2.84228
2.94828
3.08571
3.24948
3.43674
3.6459
3.87612
4.12715
4.39915
4.69273
5.00895
5.34954
5.71585
6.10939
6.53219
6.98659
7.47512
8.00027
8.56394
9.16818
9.8189
10.5211
11.2799
12.1003
12.9882
13.9507
14.9934
16.1227
17.3459
18.6709
20.106
21.66
23.3414
25.1589
27.1218
29.2394
31.521
33.9756
36.6122
39.4397
42.4662
45.6987
49.1439
52.8117
56.7113
60.8521
65.2457
69.8931
74.7957
79.9554
85.3736
91.0515
96.9895
103.187
109.643
116.355
123.32
130.534
137.993
145.69
153.619
161.772
170.142
178.72
187.496
196.459
205.599
214.905
224.364
233.963
243.69
253.53
263.47
273.495
283.59
293.739
303.929
314.142
324.362
334.573
344.759
354.903
364.987
374.996
384.911
394.717
404.396
413.931
423.305
432.502
441.505
450.298
458.866
467.194
475.265
483.066
490.582
497.802
504.711
511.299
517.553
523.463
529.019
534.21
539.03
543.47
547.523
551.184
554.447
557.308
559.764
561.812
563.45
564.68
565.498
565.917
565.912
565.548
564.748
563.558
561.98
560.022
557.691
554.997
551.95
548.556
544.826
540.773
536.407
531.741
526.788
521.563
516.077
510.347
504.385
498.206
491.825
485.257
478.517
471.619
464.579
457.411
450.131
442.751
435.287
427.751
420.158
412.52
404.849
397.159
389.46
381.764
374.081
366.42
358.793
351.207
343.671
336.195
328.786
321.453
314.203
307.044
299.986
293.034
286.2
279.492
272.921
266.498
260.237
254.151
248.25
242.555
237.015
231.529
8.72336
4.08972
3.13261
2.81959
2.72084
2.71989
2.77912
2.88021
3.01402
3.17582
3.36327
3.57539
3.81132
4.07111
4.35532
4.6648
5.00044
5.36253
5.75325
6.17636
6.6353
7.13373
7.6757
8.2658
8.90959
9.61326
10.382
11.2226
12.1424
13.1495
14.2526
15.4613
16.7848
18.2329
19.816
21.545
23.4312
25.4861
27.7211
30.1474
32.7763
35.6183
38.6837
41.9822
45.523
49.3144
53.3632
57.6753
62.2568
67.1134
72.251
77.6766
83.3948
89.3982
95.6826
102.244
109.077
116.177
123.538
131.153
139.015
147.117
155.449
164.003
172.769
181.737
190.897
200.237
209.747
219.414
229.228
239.174
249.242
259.419
269.691
280.044
290.467
300.944
311.462
322.007
332.565
343.121
353.661
364.17
374.634
385.036
395.362
405.597
415.725
425.731
435.6
445.316
454.864
464.228
473.393
482.345
491.068
499.548
507.771
515.723
523.39
530.759
537.819
544.556
550.961
557.022
562.73
568.075
573.047
577.639
581.844
585.656
589.068
592.076
594.677
596.866
598.64
600.004
600.943
601.48
601.585
601.317
600.619
599.512
598.006
596.107
593.822
591.158
588.126
584.736
580.995
576.911
572.498
567.768
562.733
557.407
551.802
545.933
539.814
533.459
526.884
520.103
513.131
505.983
498.674
491.22
483.635
475.934
468.132
460.244
452.282
444.262
436.195
428.094
419.973
411.843
403.714
395.599
387.507
379.448
371.431
363.465
355.558
347.718
339.953
332.272
324.681
317.188
309.801
302.527
295.376
288.356
281.477
274.751
268.189
261.805
255.606
249.616
243.782
238.044
8.60241
4.03635
3.08727
2.77571
2.67742
2.67787
2.74097
2.84835
2.99098
3.16427
3.36541
3.5923
3.84639
4.12894
4.44161
4.78657
5.16667
5.58593
6.04825
6.55808
7.12099
7.74341
8.43264
9.19686
10.0452
10.9876
12.0341
13.1962
14.4862
15.9174
17.5033
19.2584
21.197
23.3338
25.6838
28.2615
31.0807
34.1545
37.4952
41.1146
45.0229
49.2278
53.7353
58.5507
63.6789
69.1216
74.8775
80.9446
87.3228
94.0099
101.001
108.307
115.886
123.728
131.824
140.161
148.726
157.507
166.491
175.666
185.02
194.539
204.213
214.029
223.975
234.04
244.211
254.478
264.83
275.255
285.742
296.279
306.857
317.464
328.089
338.721
349.348
359.96
370.545
381.092
391.589
402.025
412.388
422.666
432.846
442.917
452.866
462.681
472.348
481.854