/*--------------------------------*- C++ -*----------------------------------*\
| =========                 |                                                 |
| \\      /  F ield         | OpenFOAM: The Open Source CFD Toolbox           |
|  \\    /   O peration     | Version:  5.0                                   |
|   \\  /    A nd           | Web:      www.OpenFOAM.org                      |
|    \\/     M anipulation  |                                                 |
\*---------------------------------------------------------------------------*/
FoamFile
{
    version     2.0;
    format      ascii;
    class       volScalarField;
    location    "287";
    object      k;
}
// * * * * * * * * * * * * * * * * * * * * * * * * * * * * * * * * * * * * * //

dimensions      [0 2 -2 0 0 0 0];

internalField   nonuniform List<scalar> 
12225
(
0.362829
0.34399
0.327753
0.309809
0.295412
0.283467
0.275529
0.270278
0.27034
0.271864
0.276076
0.280628
0.289958
0.295499
0.307037
0.312266
0.326995
0.335203
0.440271
0.468738
0.461616
0.44837
0.450343
0.458314
0.474575
0.498484
0.524413
0.552059
0.580733
0.606097
0.633789
0.653777
0.679646
0.693049
0.717193
0.728542
0.390407
0.41786
0.420244
0.41683
0.411634
0.407802
0.408019
0.410035
0.414564
0.42138
0.430719
0.4397
0.451147
0.461134
0.472782
0.483504
0.493373
0.505925
0.377043
0.387169
0.391466
0.391343
0.39026
0.387882
0.385662
0.384078
0.382883
0.382895
0.383384
0.38432
0.386288
0.388461
0.390893
0.394228
0.396471
0.400948
0.374434
0.376094
0.378427
0.378665
0.378275
0.3772
0.375489
0.373737
0.37201
0.370455
0.369258
0.368105
0.367379
0.366802
0.36644
0.366327
0.366335
0.366686
0.373779
0.372704
0.372659
0.372365
0.371773
0.370818
0.369554
0.368083
0.366572
0.364977
0.363529
0.362063
0.360755
0.359529
0.358397
0.357425
0.356436
0.355778
0.373775
0.37174
0.370388
0.369284
0.368235
0.367114
0.365915
0.364587
0.363239
0.361808
0.360423
0.359024
0.357679
0.356384
0.355122
0.353967
0.352795
0.351803
0.373818
0.371559
0.369635
0.367976
0.366501
0.365108
0.363776
0.36243
0.361108
0.359767
0.358451
0.357145
0.355865
0.354624
0.353403
0.352252
0.351101
0.350054
0.373832
0.371553
0.369449
0.367525
0.365777
0.364154
0.362645
0.361199
0.359818
0.358474
0.357171
0.355904
0.354669
0.353477
0.35231
0.351198
0.3501
0.349075
0.373831
0.37156
0.369418
0.367405
0.365529
0.363773
0.362133
0.360585
0.359122
0.357728
0.356395
0.355119
0.353889
0.352712
0.351571
0.350483
0.349422
0.348422
0.373829
0.37156
0.369413
0.367378
0.365458
0.363645
0.361937
0.360324
0.358799
0.357353
0.35598
0.354673
0.353425
0.352237
0.351096
0.35001
0.348961
0.34797
0.373828
0.371558
0.369409
0.36737
0.365439
0.363609
0.361876
0.360234
0.358678
0.357202
0.3558
0.354469
0.353201
0.351995
0.350843
0.349748
0.348696
0.347702
0.373827
0.371556
0.369405
0.367365
0.36543
0.363593
0.361851
0.360197
0.358626
0.357134
0.355716
0.354368
0.353085
0.351865
0.350701
0.349595
0.348536
0.347532
0.373826
0.371555
0.369401
0.367359
0.365422
0.363583
0.361837
0.360178
0.3586
0.357101
0.355674
0.354317
0.353025
0.351795
0.350622
0.349506
0.34844
0.347427
0.373826
0.371553
0.369398
0.367355
0.365416
0.363575
0.361826
0.360164
0.358584
0.357081
0.355651
0.35429
0.352993
0.351758
0.35058
0.349458
0.348388
0.347368
0.373826
0.371552
0.369396
0.367351
0.36541
0.363567
0.361817
0.360153
0.358571
0.357067
0.355634
0.35427
0.352971
0.351734
0.350554
0.349429
0.348356
0.347333
0.373825
0.371551
0.369394
0.367348
0.365406
0.363562
0.36181
0.360145
0.358561
0.357055
0.355621
0.354256
0.352955
0.351716
0.350534
0.349408
0.348333
0.347308
0.373825
0.371551
0.369393
0.367346
0.365403
0.363558
0.361805
0.360139
0.358554
0.357047
0.355612
0.354245
0.352943
0.351703
0.35052
0.349392
0.348316
0.347289
0.373825
0.37155
0.369393
0.367345
0.365402
0.363557
0.361804
0.360137
0.358552
0.357043
0.355608
0.35424
0.352938
0.351696
0.350513
0.349384
0.348307
0.34728
0.373825
0.371551
0.369393
0.367347
0.365404
0.363559
0.361806
0.360139
0.358554
0.357046
0.355611
0.354244
0.352941
0.3517
0.350516
0.349388
0.348311
0.347284
0.373825
0.371551
0.369395
0.367349
0.365407
0.363563
0.361811
0.360145
0.358562
0.357055
0.355621
0.354255
0.352954
0.351715
0.350533
0.349406
0.348332
0.347307
0.373826
0.371552
0.369397
0.367352
0.365412
0.363571
0.361822
0.360161
0.358583
0.357083
0.355656
0.354298
0.353006
0.351774
0.350602
0.349482
0.348416
0.347397
0.373826
0.371554
0.369399
0.367359
0.365428
0.363602
0.361875
0.36024
0.35869
0.35722
0.355823
0.354493
0.353227
0.352018
0.350865
0.349762
0.34871
0.3477
0.373828
0.371551
0.369412
0.367417
0.365556
0.363819
0.362189
0.360651
0.359189
0.357793
0.356456
0.355171
0.353935
0.352745
0.3516
0.350495
0.349435
0.348409
0.373823
0.371554
0.369604
0.367893
0.366339
0.364892
0.363495
0.362122
0.360761
0.359413
0.35808
0.356769
0.355488
0.354237
0.353028
0.351855
0.350733
0.349644
0.373781
0.37199
0.371113
0.370265
0.36936
0.368311
0.367048
0.365629
0.36412
0.362575
0.36103
0.359522
0.358073
0.356682
0.355381
0.354141
0.353009
0.351923
0.374297
0.375564
0.377778
0.377858
0.377291
0.375885
0.373835
0.371641
0.369505
0.367482
0.365664
0.364084
0.36271
0.361535
0.36061
0.359818
0.359289
0.358801
0.378732
0.394393
0.398293
0.396565
0.392558
0.387608
0.383642
0.380455
0.378266
0.376852
0.376497
0.376751
0.3774
0.378699
0.380445
0.382425
0.38483
0.387141
0.408344
0.427539
0.422424
0.411051
0.402227
0.397925
0.398558
0.401119
0.405989
0.413043
0.421001
0.429835
0.438843
0.448201
0.457317
0.466565
0.475334
0.484195
0.366033
0.353412
0.341988
0.33021
0.318982
0.308382
0.299409
0.291674
0.285403
0.280334
0.276682
0.273868
0.272311
0.271186
0.271177
0.271524
0.272158
0.273389
0.000538364
0.00315678
0.00590165
0.00831736
0.010604
0.0131787
0.016162
0.0197239
0.0239613
0.0288662
0.0343433
0.0402645
0.0464934
0.0529125
0.0594141
0.0659099
0.0723133
0.0785507
0.0845454
0.0902331
0.0955497
0.10045
0.104902
0.108904
0.112485
0.115709
0.118545
0.120603
0.123969
0.126929
0.129828
0.132708
0.137257
0.139025
0.139804
0.139329
0.137563
0.13959
0.142537
0.142174
0.13673
0.144632
0.149992
0.158651
0.164894
0.173148
0.180582
0.188751
0.196803
0.205172
0.213628
0.222284
0.231082
0.240048
0.249168
0.258449
0.267885
0.277479
0.287226
0.297128
0.307179
0.31738
0.327726
0.338215
0.348841
0.359601
0.37049
0.381504
0.392634
0.403877
0.415224
0.426669
0.438202
0.449819
0.461507
0.47326
0.485067
0.496919
0.508804
0.520714
0.532636
0.544561
0.556474
0.568367
0.580223
0.592033
0.60378
0.615453
0.627034
0.638509
0.649858
0.661061
0.672096
0.68294
0.693571
0.70397
0.714132
0.724082
0.73391
0.743461
0.752806
0.761904
0.770762
0.779361
0.787694
0.79575
0.803519
0.810991
0.818157
0.825009
0.831537
0.837735
0.843594
0.849107
0.854267
0.85907
0.863507
0.867576
0.871271
0.87459
0.877529
0.880083
0.882249
0.884026
0.885412
0.886408
0.88701
0.887212
0.887074
0.886582
0.885639
0.884271
0.882494
0.880429
0.87805
0.875237
0.87209
0.868589
0.864748
0.860576
0.856081
0.851274
0.846166
0.840761
0.835069
0.829102
0.822869
0.816383
0.809654
0.802695
0.795517
0.788131
0.780552
0.77279
0.764859
0.756772
0.74854
0.740179
0.731703
0.72313
0.714489
0.705844
0.6976
0.692055
0.688139
0.684328
0.680487
0.676602
0.672678
0.668721
0.664734
0.660719
0.656669
0.652569
0.648383
0.644034
0.639363
0.633929
0.626847
0.600914
0.00277462
0.0116001
0.0176364
0.0221146
0.0260469
0.0298726
0.0339492
0.0384858
0.0435733
0.0492054
0.0553116
0.061794
0.0685476
0.0754767
0.0824953
0.08953
0.0965127
0.103383
0.110083
0.116563
0.122778
0.128699
0.134314
0.139637
0.144706
0.149589
0.154393
0.159303
0.164646
0.170485
0.177013
0.183875
0.189908
0.195109
0.20081
0.207116
0.216216
0.225414
0.235415
0.245323
0.256202
0.270118
0.283812
0.295978
0.308009
0.320888
0.334048
0.3476
0.361457
0.375649
0.390153
0.404977
0.420114
0.435569
0.451339
0.467428
0.483834
0.500559
0.517602
0.534965
0.552646
0.570644
0.588957
0.607583
0.626518
0.645758
0.665297
0.685131
0.705252
0.725653
0.746325
0.767258
0.788443
0.809869
0.831522
0.85339
0.875459
0.897715
0.920141
0.942722
0.965439
0.988276
1.01121
1.03423
1.0573
1.08042
1.10355
1.12667
1.14976
1.17279
1.19573
1.21856
1.24124
1.26374
1.286
1.30799
1.32965
1.35091
1.37169
1.3922
1.41239
1.43226
1.45177
1.47091
1.48966
1.50799
1.52589
1.54333
1.56029
1.57675
1.59269
1.6081
1.62295
1.63723
1.65093
1.66402
1.67649
1.68833
1.69953
1.71007
1.71994
1.72913
1.73763
1.74544
1.75254
1.75893
1.7646
1.76957
1.77383
1.77738
1.78021
1.78221
1.78336
1.78391
1.78393
1.7831
1.78158
1.77937
1.77647
1.77289
1.76865
1.76375
1.75821
1.75205
1.74528
1.73791
1.72996
1.72145
1.71241
1.70283
1.69276
1.6822
1.67118
1.65972
1.64785
1.63558
1.62293
1.60994
1.59662
1.583
1.56912
1.55501
1.54082
1.52699
1.51333
1.49956
1.48567
1.47167
1.4576
1.44347
1.42931
1.41511
1.4009
1.38668
1.37241
1.35807
1.34348
1.32865
1.31218
1.27553
0.00595302
0.0200847
0.0281618
0.0341385
0.0394166
0.044541
0.0498161
0.0554215
0.0614418
0.0678868
0.0747147
0.0818572
0.089238
0.0967852
0.104435
0.112133
0.119832
0.127494
0.135083
0.142573
0.149948
0.157208
0.164373
0.171492
0.178651
0.185976
0.193627
0.201758
0.210502
0.21987
0.22974
0.239771
0.249868
0.260338
0.271332
0.283245
0.296184
0.309589
0.323485
0.337904
0.35303
0.368848
0.384845
0.400945
0.417314
0.434129
0.451345
0.468965
0.486971
0.505366
0.524145
0.54331
0.562858
0.58279
0.603107
0.623808
0.644894
0.666364
0.688218
0.710455
0.733072
0.756068
0.779439
0.803181
0.827289
0.851758
0.87658
0.901748
0.927253
0.953085
0.979235
1.00569
1.03244
1.05946
1.08675
1.11428
1.14205
1.17002
1.19819
1.22654
1.25503
1.28365
1.31238
1.34119
1.37006
1.39896
1.42787
1.45674
1.48557
1.51431
1.54294
1.57142
1.59972
1.62781
1.65566
1.68322
1.71048
1.73741
1.76399
1.79021
1.81604
1.84146
1.86642
1.89091
1.9149
1.93835
1.96124
1.98353
2.00522
2.02626
2.04663
2.06631
2.08528
2.10351
2.12098
2.13768
2.15357
2.16865
2.18291
2.19631
2.20885
2.22051
2.23129
2.24117
2.25014
2.2582
2.26534
2.27156
2.27686
2.28123
2.28467
2.28714
2.28852
2.28907
2.28883
2.28762
2.28551
2.28249
2.27859
2.27382
2.2682
2.26175
2.25447
2.24639
2.23753
2.2279
2.21754
2.20646
2.19469
2.18225
2.16917
2.15547
2.14119
2.12634
2.11096
2.09508
2.07872
2.06192
2.0447
2.02711
2.00918
1.99097
1.97258
1.95425
1.93591
1.91745
1.89885
1.88013
1.86132
1.84245
1.82355
1.80465
1.78576
1.76692
1.74813
1.72943
1.71075
1.69222
1.67257
1.64071
0.00963608
0.0281819
0.0381673
0.0454337
0.0517571
0.0577965
0.0638891
0.0702253
0.0769009
0.0839429
0.0913303
0.0990157
0.106941
0.115052
0.123297
0.131638
0.140045
0.148493
0.156969
0.165467
0.173991
0.182563
0.191221
0.20003
0.209076
0.218468
0.228317
0.238721
0.249736
0.26135
0.273487
0.286029
0.298973
0.312397
0.326397
0.34111
0.356536
0.372547
0.389108
0.406205
0.423833
0.441954
0.460473
0.479343
0.498579
0.518231
0.53831
0.558821
0.579764
0.601142
0.622955
0.645204
0.667891
0.691017
0.714583
0.73859
0.763039
0.787931
0.813263
0.839036
0.865249
0.891898
0.91898
0.946492
0.974427
1.00278
1.03155
1.06071
1.09027
1.12021
1.15053
1.18119
1.21221
1.24354
1.27519
1.30713
1.33935
1.37181
1.4045
1.4374
1.47048
1.50372
1.53709
1.57055
1.60409
1.63767
1.67127
1.70484
1.73836
1.77179
1.8051
1.83826
1.87123
1.90397
1.93646
1.96866
2.00053
2.03205
2.06318
2.09389
2.12415
2.15391
2.18314
2.2118
2.23986
2.2673
2.29406
2.32012
2.34545
2.37002
2.39379
2.41674
2.43885
2.46007
2.4804
2.4998
2.51826
2.53575
2.55225
2.56774
2.58221
2.59564
2.60802
2.61934
2.62958
2.63874
2.64682
2.6538
2.6597
2.66451
2.6682
2.67076
2.67207
2.67243
2.67176
2.66999
2.66715
2.66326
2.65834
2.65239
2.64545
2.63752
2.62863
2.61881
2.60807
2.59645
2.58396
2.57064
2.55651
2.54161
2.52596
2.5096
2.49255
2.47486
2.45655
2.43765
2.41821
2.39826
2.37784
2.35698
2.33574
2.31417
2.29236
2.27047
2.24847
2.22634
2.20405
2.18163
2.15913
2.13658
2.11401
2.09147
2.06899
2.04663
2.02444
2.0025
1.98086
1.95969
1.93792
1.90859
0.01337
0.0357945
0.0475448
0.0560013
0.0632534
0.07006
0.0768029
0.0836966
0.0908576
0.0983352
0.106132
0.114223
0.122568
0.131127
0.139865
0.148754
0.157774
0.166916
0.176179
0.18557
0.195108
0.204823
0.214757
0.224971
0.235536
0.246532
0.258038
0.270114
0.282794
0.296071
0.309916
0.324294
0.339198
0.354652
0.370699
0.387376
0.404676
0.422573
0.44104
0.460052
0.479586
0.49962
0.520123
0.54107
0.562461
0.58431
0.606627
0.629419
0.652692
0.676448
0.700692
0.725427
0.750655
0.77638
0.802605
0.82933
0.856558
0.88429
0.912527
0.941268
0.970512
1.00026
1.0305
1.06124
1.09248
1.12419
1.15638
1.18904
1.22216
1.25573
1.28973
1.32415
1.35897
1.39419
1.42976
1.46569
1.50194
1.53849
1.57532
1.6124
1.64971
1.6872
1.72486
1.76265
1.80054
1.83849
1.87647
1.91445
1.95237
1.99022
2.02794
2.0655
2.10287
2.13999
2.17685
2.21338
2.24955
2.28533
2.32066
2.35551
2.38984
2.4236
2.45675
2.48925
2.52107
2.55215
2.58246
2.61197
2.64063
2.66841
2.69528
2.72121
2.74615
2.77009
2.79298
2.81482
2.83556
2.85519
2.87368
2.89102
2.90718
2.92215
2.93591
2.94845
2.95976
2.96983
2.97866
2.98624
2.99257
2.99765
3.00147
3.00398
3.00512
3.00519
3.00401
3.00161
2.998
2.99319
2.98721
2.98007
2.9718
2.96242
2.95195
2.94043
2.92788
2.91433
2.8998
2.88435
2.86798
2.85075
2.83268
2.81381
2.79418
2.77383
2.75279
2.73111
2.70881
2.68595
2.66257
2.63871
2.61442
2.58977
2.56483
2.53971
2.51443
2.48898
2.46337
2.43763
2.41181
2.38595
2.3601
2.33431
2.30863
2.28316
2.25796
2.23317
2.20893
2.18542
2.16172
2.13299
0.01695
0.0427362
0.0560762
0.0656199
0.0737105
0.0811908
0.0884849
0.0958331
0.103374
0.111179
0.119275
0.127658
0.136309
0.145203
0.154317
0.163634
0.173145
0.18285
0.192756
0.202879
0.213244
0.223882
0.234837
0.246157
0.2579
0.270122
0.28288
0.296214
0.310152
0.324698
0.339848
0.35559
0.371919
0.38884
0.406365
0.4245
0.443241
0.46258
0.482502
0.502991
0.524031
0.545608
0.56771
0.590325
0.613451
0.637092
0.661254
0.685943
0.711167
0.73693
0.763239
0.790098
0.817512
0.845485
0.874023
0.903127
0.932802
0.96305
0.993873
1.02527
1.05725
1.0898
1.12292
1.15662
1.19088
1.2257
1.26108
1.297
1.33345
1.37043
1.40792
1.44589
1.48435
1.52326
1.56261
1.60236
1.64251
1.68302
1.72386
1.76501
1.80643
1.84809
1.88995
1.93198
1.97414
2.01638
2.05868
2.10099
2.14327
2.18547
2.22754
2.26946
2.31116
2.35261
2.39375
2.43454
2.47493
2.51487
2.55431
2.59321
2.63151
2.66917
2.70615
2.74238
2.77784
2.81247
2.84623
2.87908
2.91097
2.94186
2.97171
3.0005
3.02817
3.0547
3.08006
3.10421
3.12713
3.14878
3.16916
3.18822
3.20596
3.22235
3.23738
3.25104
3.2633
3.27418
3.28365
3.29172
3.29839
3.30365
3.30751
3.30987
3.3108
3.31045
3.30872
3.30562
3.30117
3.29539
3.28831
3.27994
3.27031
3.25945
3.24739
3.23416
3.21979
3.20432
3.18778
3.17021
3.15164
3.13211
3.11168
3.09036
3.06821
3.04527
3.02159
2.9972
2.97215
2.94648
2.92026
2.89351
2.8663
2.83869
2.81075
2.78257
2.75417
2.72559
2.69684
2.66796
2.639
2.61002
2.58107
2.55222
2.52354
2.49514
2.46712
2.43967
2.41294
2.38715
2.36146
2.33211
0.0202421
0.0488803
0.0636083
0.0741143
0.0829477
0.0910194
0.0987883
0.106517
0.114363
0.122418
0.130732
0.139321
0.148184
0.157312
0.166695
0.176327
0.186207
0.196341
0.206743
0.217434
0.228439
0.239791
0.251528
0.263692
0.276326
0.289474
0.303175
0.317461
0.332356
0.34787
0.364006
0.380762
0.398136
0.416127
0.434737
0.453965
0.473809
0.494266
0.515329
0.53699
0.559242
0.582078
0.605491
0.629479
0.654039
0.679176
0.704893
0.731198
0.758098
0.785599
0.81371
0.842437
0.871786
0.901765
0.932379
0.963634
0.995536
1.02809
1.06129
1.09515
1.12967
1.16485
1.20069
1.23718
1.27433
1.31212
1.35055
1.38961
1.42929
1.46958
1.51046
1.55192
1.59394
1.63649
1.67955
1.7231
1.7671
1.81154
1.85637
1.90157
1.94709
1.99291
2.03897
2.08524
2.13168
2.17823
2.22486
2.27152
2.31816
2.36472
2.41117
2.45744
2.50348
2.54925
2.59468
2.63972
2.68431
2.7284
2.77194
2.81486
2.85712
2.89866
2.93942
2.97937
3.01844
3.05658
3.09374
3.12988
3.16494
3.19889
3.23168
3.26326
3.2936
3.32266
3.35041
3.37681
3.40182
3.42543
3.44761
3.46832
3.48756
3.50529
3.5215
3.53619
3.54933
3.56092
3.57095
3.57943
3.58635
3.59171
3.59553
3.59769
3.59833
3.5975
3.59514
3.59128
3.58593
3.57912
3.57088
3.56123
3.5502
3.53783
3.52414
3.50918
3.49298
3.47557
3.457
3.43731
3.41655
3.39474
3.37195
3.34821
3.32358
3.29809
3.2718
3.24476
3.21701
3.18861
3.1596
3.13004
3.09998
3.06949
3.03864
3.0075
2.97611
2.94451
2.91274
2.88084
2.84886
2.81688
2.78495
2.75316
2.7216
2.69038
2.65965
2.6296
2.60043
2.57233
2.54451
2.51371
0.0231505
0.0541467
0.0700454
0.0813718
0.0908415
0.0994194
0.107591
0.115636
0.123727
0.131975
0.140444
0.149171
0.158171
0.167452
0.177015
0.186862
0.197002
0.207445
0.218209
0.229316
0.240794
0.252672
0.264984
0.277764
0.291049
0.304871
0.319262
0.334245
0.349843
0.366066
0.382923
0.400416
0.418547
0.437316
0.456722
0.476767
0.49745
0.518771
0.540729
0.563323
0.58655
0.61041
0.634903
0.660028
0.685789
0.712189
0.739234
0.766933
0.795293
0.824325
0.854036
0.884436
0.915535
0.947339
0.979859
1.0131
1.04707
1.08178
1.11723
1.15343
1.19037
1.22806
1.26651
1.30571
1.34565
1.38634
1.42776
1.4699
1.51277
1.55633
1.60057
1.64549
1.69104
1.73722
1.784
1.83134
1.87921
1.92759
1.97643
2.02569
2.07535
2.12534
2.17563
2.22618
2.27692
2.32781
2.3788
2.42984
2.48086
2.53182
2.58264
2.63329
2.68368
2.73377
2.78349
2.83278
2.88157
2.9298
2.97741
3.02434
3.07053
3.11592
3.16046
3.20407
3.24671
3.28831
3.32883
3.3682
3.40639
3.44333
3.47898
3.5133
3.54624
3.57775
3.60781
3.63638
3.66341
3.68889
3.71278
3.73505
3.75569
3.77468
3.79199
3.80761
3.82154
3.83375
3.84426
3.85306
3.86015
3.86552
3.86921
3.8711
3.87137
3.86998
3.86693
3.86223
3.85593
3.84804
3.83859
3.82761
3.81514
3.80122
3.78588
3.76916
3.7511
3.73174
3.71114
3.68934
3.66638
3.64231
3.61718
3.59105
3.56395
3.53596
3.50711
3.47746
3.44707
3.41598
3.38426
3.35196
3.31913
3.28583
3.25215
3.21814
3.18385
3.14934
3.11465
3.07984
3.04496
3.01008
2.97528
2.94065
2.9063
2.87236
2.83898
2.80638
2.77476
2.7443
2.71425
2.68185
0.0256174
0.0585041
0.0753501
0.0873452
0.0973362
0.10633
0.11483
0.12313
0.131413
0.139802
0.148377
0.157188
0.166268
0.175635
0.185302
0.195282
0.205587
0.216233
0.22724
0.238631
0.250431
0.26267
0.275377
0.28858
0.30231
0.316594
0.331458
0.346922
0.363005
0.37972
0.397077
0.415083
0.433742
0.453059
0.473037
0.493678
0.514985
0.536962
0.559613
0.582941
0.606948
0.631639
0.657019
0.683091
0.709863
0.737341
0.765533
0.79445
0.824101
0.8545
0.885656
0.917581
0.950288
0.983786
1.01809
1.0532
1.08913
1.1259
1.1635
1.20195
1.24124
1.28139
1.32239
1.36424
1.40695
1.45049
1.49488
1.54009
1.58612
1.63295
1.68057
1.72894
1.77805
1.82788
1.87838
1.92953
1.9813
2.03364
2.08651
2.13988
2.19369
2.24789
2.30243
2.35727
2.41234
2.46758
2.52295
2.57836
2.63377
2.68911
2.74432
2.79932
2.85404
2.90843
2.9624
3.0159
3.06884
3.12117
3.17281
3.22369
3.27374
3.32291
3.37113
3.41833
3.46445
3.50943
3.55321
3.59573
3.63693
3.67676
3.71517
3.75211
3.78753
3.82139
3.85364
3.88426
3.91319
3.94042
3.9659
3.98962
4.01155
4.03167
4.04996
4.06641
4.081
4.09374
4.10461
4.11362
4.12077
4.12608
4.12953
4.13109
4.13089
4.12886
4.12505
4.11946
4.11213
4.1031
4.09239
4.08005
4.06611
4.0506
4.03358
4.01509
3.99516
3.97386
3.95123
3.92732
3.90219
3.87588
3.84846
3.81997
3.79047
3.76002
3.72867
3.69649
3.66352
3.62983
3.59547
3.5605
3.52499
3.48899
3.45257
3.4158
3.37873
3.34143
3.30394
3.26632
3.22865
3.19099
3.15344
3.11608
3.07904
3.04246
3.00651
2.9714
2.93735
2.9045
2.87214
2.838
0.0276113
0.0619584
0.0795345
0.0920453
0.102439
0.111754
0.120508
0.128999
0.137422
0.145905
0.154542
0.163393
0.172503
0.181901
0.19161
0.201649
0.212036
0.222791
0.233937
0.245495
0.257491
0.269949
0.282898
0.296361
0.310366
0.324935
0.34009
0.355851
0.372235
0.389257
0.40693
0.425263
0.444266
0.463947
0.484312
0.505369
0.527124
0.549586
0.572762
0.59666
0.621287
0.646653
0.672766
0.699634
0.727269
0.75568
0.78488
0.814882
0.845699
0.877345
0.909834
0.943182
0.977401
1.01251
1.04851
1.08542
1.12326
1.16203
1.20174
1.2424
1.28401
1.32659
1.37013
1.41463
1.4601
1.50651
1.55387
1.60217
1.65139
1.70151
1.75252
1.80438
1.85708
1.91057
1.96483
2.01983
2.07551
2.13184
2.18876
2.24624
2.30421
2.36262
2.42142
2.48054
2.53991
2.59949
2.65919
2.71895
2.7787
2.83836
2.89787
2.95715
3.01613
3.07472
3.13286
3.19045
3.24744
3.30374
3.35927
3.41397
3.46775
3.52056
3.57232
3.62295
3.67239
3.72058
3.76746
3.81294
3.85699
3.89954
3.94053
3.97991
4.01764
4.05366
4.08794
4.12043
4.15109
4.17989
4.20681
4.23181
4.25486
4.27596
4.29507
4.3122
4.32732
4.34043
4.35154
4.36064
4.36774
4.37285
4.37597
4.37711
4.37633
4.3736
4.36893
4.36238
4.35398
4.34375
4.33175
4.318
4.30255
4.28545
4.26675
4.24648
4.2247
4.20147
4.17684
4.15087
4.12361
4.09511
4.06545
4.03467
4.00284
3.97001
3.93626
3.90163
3.86619
3.83
3.79312
3.75561
3.71752
3.67894
3.63991
3.60052
3.56081
3.52085
3.48071
3.44044
3.40011
3.35981
3.31963
3.27967
3.24006
3.20094
3.16251
3.12496
3.0885
3.05328
3.0186
2.98252
0.0291281
0.0645477
0.0826495
0.0955295
0.10621
0.115753
0.124682
0.133301
0.141809
0.150341
0.158996
0.167845
0.176941
0.186322
0.19602
0.20606
0.216464
0.227254
0.238451
0.250079
0.26216
0.274718
0.287777
0.301362
0.315494
0.330196
0.345489
0.361391
0.377922
0.395097
0.412933
0.431444
0.450641
0.470539
0.491147
0.512479
0.534545
0.557358
0.58093
0.605272
0.630398
0.65632
0.683052
0.710609
0.739004
0.768253
0.79837
0.829373
0.861279
0.894106
0.92787
0.962589
0.998279
1.03496
1.07264
1.11134
1.15107
1.19184
1.23367
1.27656
1.32052
1.36556
1.41167
1.45886
1.50712
1.55645
1.60684
1.65827
1.71072
1.76419
1.81863
1.87402
1.93034
1.98754
2.04559
2.10444
2.16405
2.22436
2.28533
2.3469
2.40901
2.47159
2.53458
2.59792
2.66153
2.72534
2.78928
2.85327
2.91723
2.98108
3.04475
3.10815
3.1712
3.23382
3.29591
3.35741
3.41823
3.47828
3.53748
3.59576
3.65304
3.70924
3.76428
3.81809
3.8706
3.92174
3.97144
4.01964
4.06627
4.11127
4.15458
4.19615
4.23593
4.27386
4.30991
4.34403
4.37618
4.40633
4.43444
4.4605
4.48446
4.50633
4.52607
4.54368
4.55915
4.57247
4.58365
4.59268
4.59958
4.60436
4.60704
4.60763
4.6062
4.60266
4.59706
4.58948
4.57994
4.56848
4.55514
4.53997
4.52301
4.50432
4.48393
4.46192
4.43832
4.41321
4.38663
4.35866
4.32934
4.29874
4.26693
4.23397
4.19992
4.16484
4.1288
4.09186
4.05408
4.01554
3.97628
3.93637
3.89589
3.85488
3.81341
3.77156
3.72939
3.68696
3.64433
3.60158
3.55878
3.51601
3.47337
3.43096
3.38893
3.34742
3.30661
3.26672
3.22792
3.19036
3.15339
3.11534
0.0301866
0.066339
0.0847766
0.0978896
0.108747
0.118426
0.127453
0.136135
0.144672
0.153206
0.161839
0.170651
0.179699
0.189028
0.198672
0.208662
0.219021
0.229774
0.240942
0.252549
0.264618
0.27717
0.290229
0.303817
0.317957
0.332671
0.347979
0.363899
0.380453
0.397662
0.415543
0.434116
0.453398
0.473406
0.494157
0.515665
0.537949
0.561027
0.584916
0.609629
0.635184
0.661598
0.688892
0.717084
0.746195
0.776243
0.80725
0.839236
0.872222
0.90623
0.94128
0.977391
1.01458
1.05288
1.09228
1.13283
1.17451
1.21737
1.26139
1.30659
1.35299
1.40057
1.44935
1.49933
1.55048
1.60282
1.65632
1.71096
1.76673
1.82359
1.88153
1.9405
2.00048
2.06141
2.12325
2.18595
2.24947
2.31373
2.37869
2.44428
2.51043
2.57707
2.64414
2.71154
2.77922
2.84708
2.91506
2.98305
3.05099
3.11878
3.18634
3.25357
3.3204
3.38673
3.45248
3.51755
3.58185
3.64531
3.70783
3.76933
3.82972
3.88894
3.94689
4.00351
4.05871
4.11242
4.16458
4.2151
4.26394
4.31102
4.35629
4.39969
4.44116
4.48066
4.51815
4.55357
4.58689
4.61807
4.64709
4.67392
4.69853
4.7209
4.74102
4.75888
4.77447
4.78779
4.79884
4.80762
4.81416
4.81847
4.82056
4.82049
4.8183
4.81383
4.80724
4.79856
4.78783
4.77511
4.76042
4.74382
4.72536
4.70509
4.68307
4.65935
4.63401
4.60708
4.57865
4.54877
4.51751
4.48494
4.45111
4.41611
4.37998
4.34281
4.30465
4.26557
4.22565
4.18493
4.1435
4.1014
4.05871
4.01548
3.97179
3.9277
3.88328
3.83859
3.79371
3.74869
3.70363
3.6586
3.6137
3.56905
3.52477
3.48104
3.43801
3.39591
3.35489
3.3151
3.27593
3.23596
0.0308292
0.0674124
0.0860151
0.0992369
0.110168
0.119896
0.128946
0.137629
0.146146
0.154643
0.163223
0.171965
0.180928
0.190161
0.199705
0.209592
0.219849
0.230501
0.241572
0.253083
0.265058
0.277519
0.290488
0.303988
0.318044
0.33268
0.347922
0.363783
0.380287
0.397455
0.41531
0.433876
0.453174
0.473227
0.494058
0.515693
0.538165
0.56149
0.585685
0.610771
0.636765
0.663678
0.691544
0.720393
0.750252
0.781147
0.813102
0.846143
0.880296
0.915584
0.952031
0.989658
1.02848
1.06853
1.10982
1.15236
1.19617
1.24127
1.28765
1.33535
1.38434
1.43465
1.48627
1.53918
1.59338
1.64886
1.7056
1.76357
1.82275
1.88311
1.9446
2.00719
2.07084
2.13549
2.2011
2.2676
2.33493
2.40304
2.47185
2.54129
2.61129
2.68177
2.75266
2.82387
2.89531
2.96691
3.03857
3.11021
3.18173
3.25305
3.32407
3.39471
3.46486
3.53443
3.60334
3.67148
3.73878
3.80513
3.87045
3.93465
3.99764
4.05935
4.11969
4.17858
4.23595
4.29172
4.34582
4.39817
4.44872
4.4974
4.54414
4.5889
4.63161
4.67224
4.71072
4.74703
4.78112
4.81296
4.84251
4.86975
4.89467
4.91723
4.93743
4.95525
4.9707
4.98377
4.99446
5.0028
5.00878
5.01244
5.0138
5.01297
5.00987
5.0044
4.99673
4.9869
4.97496
4.96094
4.9449
4.92689
4.90697
4.88518
4.86159
4.83626
4.80926
4.78064
4.75048
4.71885
4.6858
4.65141
4.61576
4.5789
4.5409
4.50184
4.46179
4.4208
4.37896
4.33632
4.29294
4.2489
4.20426
4.15908
4.11342
4.06736
4.02096
3.97429
3.92741
3.88039
3.83333
3.78629
3.73938
3.69272
3.64644
3.60069
3.55565
3.51151
3.46843
3.42657
3.38534
3.3436
0.0310379
0.0677964
0.0864355
0.0996667
0.110588
0.120291
0.129305
0.137936
0.146387
0.154803
0.163293
0.171942
0.180813
0.18995
0.199393
0.209173
0.21932
0.229858
0.240812
0.252204
0.264057
0.276394
0.289238
0.302614
0.316546
0.331057
0.346172
0.361914
0.378312
0.395395
0.413193
0.431735
0.451048
0.471162
0.492104
0.5139
0.536579
0.56017
0.584697
0.610188
0.636674
0.664169
0.692721
0.722365
0.753131
0.785046
0.818141
0.852448
0.887994
0.924807
0.962908
1.00232
1.04306
1.08515
1.12861
1.17345
1.21968
1.26732
1.31637
1.36684
1.41872
1.47201
1.52671
1.5828
1.64026
1.69907
1.75921
1.82064
1.88333
1.94724
2.01232
2.07852
2.1458
2.21409
2.28334
2.35347
2.42443
2.49613
2.56852
2.64149
2.71499
2.78892
2.86321
2.93776
3.01248
3.0873
3.1621
3.23681
3.31133
3.38556
3.45942
3.5328
3.6056
3.67775
3.74913
3.81965
3.88923
3.95777
4.02518
4.09137
4.15626
4.21976
4.28179
4.34227
4.40113
4.45828
4.51366
4.56719
4.61881
4.66846
4.71608
4.76161
4.805
4.84619
4.88516
4.92184
4.95621
4.98824
5.01788
5.04512
5.06994
5.09232
5.11225
5.12972
5.14473
5.15727
5.16736
5.17501
5.18024
5.18308
5.18356
5.18187
5.17769
5.17114
5.16235
5.15134
5.13816
5.12286
5.1055
5.08613
5.06481
5.04159
5.01655
4.98973
4.96122
4.93107
4.89936
4.86616
4.83154
4.79556
4.7583
4.71984
4.68023
4.63955
4.59787
4.55527
4.51179
4.46752
4.42252
4.37684
4.33056
4.28374
4.23644
4.18873
4.14067
4.09233
4.04378
3.99508
3.94632
3.89759
3.84897
3.80059
3.75258
3.70508
3.65826
3.61232
3.5674
3.52366
3.48058
3.43726
0.0309741
0.0677186
0.0862942
0.0994716
0.110337
0.119977
0.128917
0.137465
0.145825
0.154141
0.16252
0.171041
0.179765
0.188743
0.198013
0.207614
0.217574
0.227922
0.238682
0.249878
0.261535
0.273678
0.286332
0.299525
0.313283
0.327637
0.342617
0.358257
0.374591
0.391652
0.409474
0.428093
0.447542
0.467852
0.489059
0.511195
0.534298
0.558414
0.583563
0.60977
0.637049
0.665446
0.695017
0.725799
0.757829
0.791144
0.82578
0.861773
0.899165
0.937969
0.978206
1.0199
1.06306
1.10769
1.15382
1.20145
1.25059
1.30124
1.3534
1.40707
1.46223
1.51887
1.57698
1.63653
1.69749
1.75982
1.8235
1.88848
1.95472
2.02216
2.09075
2.16043
2.23115
2.30283
2.37541
2.44882
2.52298
2.59782
2.67325
2.7492
2.82559
2.90232
2.97931
3.05647
3.13371
3.21094
3.28807
3.36501
3.44165
3.51791
3.59369
3.6689
3.74343
3.81721
3.89012
3.96209
4.03302
4.10281
4.17138
4.23864
4.3045
4.36889
4.43172
4.49291
4.55239
4.61009
4.66593
4.71984
4.77176
4.82163
4.86939
4.91499
4.95837
4.9995
5.03831
5.07478
5.10887
5.14054
5.16977
5.19654
5.22082
5.2426
5.26188
5.27863
5.29287
5.3046
5.31383
5.32056
5.32482
5.32665
5.32618
5.32344
5.3181
5.31043
5.30046
5.28826
5.27387
5.25735
5.23873
5.2181
5.19549
5.17099
5.14464
5.11652
5.0867
5.05524
5.02222
4.9877
4.95177
4.91449
4.87593
4.83616
4.79527
4.7533
4.71034
4.66646
4.62172
4.57618
4.52991
4.48298
4.43544
4.38736
4.33879
4.28981
4.24048
4.19085
4.141
4.091
4.04092
3.99085
3.94088
3.89112
3.8417
3.79276
3.74448
3.69701
3.65052
3.60516
3.56047
3.51585
0.0307701
0.06739
0.0857806
0.0988018
0.109511
0.118991
0.127764
0.136141
0.144323
0.152455
0.160643
0.168967
0.177492
0.18627
0.195347
0.204753
0.21452
0.224674
0.235244
0.246257
0.257741
0.269726
0.282243
0.295325
0.309007
0.323325
0.338314
0.354013
0.370462
0.387702
0.405777
0.42474
0.444633
0.465488
0.487343
0.510235
0.53419
0.55921
0.585367
0.612732
0.641373
0.671343
0.702671
0.73539
0.769536
0.805143
0.842239
0.880848
0.920983
0.962673
1.00595
1.05083
1.09731
1.14538
1.19504
1.24629
1.29913
1.35353
1.40949
1.46698
1.52598
1.58646
1.64839
1.71173
1.77643
1.84245
1.90974
1.97825
2.04792
2.11869
2.19051
2.2633
2.337
2.41155
2.48685
2.56286
2.63947
2.71663
2.79425
2.87224
2.95053
3.02904
3.10766
3.18633
3.26495
3.34344
3.4217
3.49964
3.57718
3.65422
3.73068
3.80646
3.88147
3.95562
4.02883
4.10099
4.17203
4.24186
4.31038
4.37752
4.4432
4.50733
4.56984
4.63065
4.6897
4.7469
4.80219
4.8555
4.90677
4.95594
5.00297
5.04779
5.09036
5.13063
5.16856
5.2041
5.23724
5.26793
5.29616
5.32189
5.34512
5.36582
5.38399
5.39963
5.41273
5.42331
5.43136
5.43691
5.43997
5.44061
5.43909
5.43507
5.42851
5.41964
5.40848
5.39509
5.37952
5.36181
5.34203
5.32024
5.29649
5.27086
5.2434
5.21418
5.18328
5.15076
5.1167
5.08117
5.04423
5.00597
4.96645
4.92574
4.88391
4.84104
4.79718
4.75241
4.7068
4.6604
4.61328
4.5655
4.51712
4.46819
4.41878
4.36895
4.31876
4.26827
4.21753
4.16663
4.11563
4.06461
4.01366
3.96289
3.91243
3.8624
3.81297
3.7643
3.71653
3.66985
3.62381
3.57819
0.0303546
0.0666957
0.0847988
0.0975871
0.108074
0.117336
0.125895
0.134062
0.14204
0.149972
0.157965
0.1661
0.174441
0.18304
0.191942
0.201183
0.210799
0.220822
0.231283
0.242215
0.253655
0.265641
0.27821
0.291402
0.305264
0.319847
0.335208
0.351383
0.368418
0.386361
0.40525
0.425103
0.445955
0.467902
0.491011
0.515344
0.540965
0.567957
0.596353
0.626205
0.657568
0.690485
0.724989
0.761106
0.798861
0.838273
0.879353
0.922107