/*--------------------------------*- C++ -*----------------------------------*\
| =========                 |                                                 |
| \\      /  F ield         | OpenFOAM: The Open Source CFD Toolbox           |
|  \\    /   O peration     | Version:  5.0                                   |
|   \\  /    A nd           | Web:      www.OpenFOAM.org                      |
|    \\/     M anipulation  |                                                 |
\*---------------------------------------------------------------------------*/
FoamFile
{
    version     2.0;
    format      ascii;
    class       volScalarField;
    location    "287";
    object      nut;
}
// * * * * * * * * * * * * * * * * * * * * * * * * * * * * * * * * * * * * * //

dimensions      [0 2 -1 0 0 0 0];

internalField   nonuniform List<scalar> 
12225
(
4.14969e-05
3.93414e-05
3.74842e-05
3.54319e-05
3.37853e-05
3.24192e-05
3.15114e-05
3.09108e-05
3.09182e-05
3.10897e-05
3.15776e-05
3.20841e-05
3.31751e-05
3.37802e-05
3.51444e-05
3.56659e-05
3.75471e-05
3.97003e-05
0.000332329
0.000215222
0.000179281
0.00015768
0.000146209
0.000138213
0.000132759
0.00013163
0.000129529
0.000130043
0.000129066
0.000129418
0.000128681
0.00012853
0.000128112
0.000127365
0.000127465
0.000126271
0.000674967
0.000450837
0.000355785
0.000309833
0.000275296
0.000251094
0.000231722
0.00021727
0.000202702
0.000192112
0.000182643
0.000175209
0.000169393
0.000163697
0.000160317
0.000155592
0.000153852
0.000149854
0.000833618
0.0006849
0.000572001
0.000499957
0.000449475
0.000411943
0.000380795
0.000355991
0.000334031
0.000314777
0.000298403
0.000281637
0.000270367
0.000256099
0.000248256
0.000236178
0.000230625
0.000220455
0.000861255
0.000802526
0.00074214
0.000676567
0.000624015
0.000581363
0.000545887
0.000514551
0.000489538
0.000464434
0.000445891
0.000424083
0.000409969
0.000390843
0.000379958
0.00036309
0.00035491
0.000339473
0.00085498
0.000840347
0.000822209
0.000786486
0.000750874
0.000715893
0.000685773
0.000656132
0.000632561
0.000607528
0.000589015
0.00056727
0.000552311
0.000533138
0.000520851
0.00050373
0.000493791
0.000477442
0.000852908
0.000850685
0.00084424
0.000832828
0.000817416
0.000796998
0.000777893
0.00075674
0.000738907
0.000719157
0.000703546
0.000685641
0.000672147
0.000655957
0.000644366
0.000629527
0.000619951
0.000605103
0.000851923
0.000851813
0.000850173
0.000847394
0.000841454
0.000833728
0.000824898
0.000813418
0.000802811
0.000790478
0.000779724
0.000767554
0.000757444
0.000745806
0.000736588
0.00072551
0.000717554
0.000705961
0.000851751
0.000851542
0.000851035
0.000850338
0.000848881
0.000846168
0.000843035
0.000838306
0.000833404
0.000827365
0.000821223
0.000814777
0.000808443
0.000801519
0.000795317
0.000788353
0.000782562
0.000775003
0.000851769
0.000851389
0.000851046
0.000850633
0.000850248
0.000849368
0.000848405
0.000846781
0.000844957
0.000842532
0.000839926
0.000836803
0.000833802
0.000830159
0.000826987
0.000822934
0.000819945
0.000815315
0.000851787
0.000851359
0.000851012
0.000850613
0.000850329
0.000849905
0.000849526
0.000848929
0.000848303
0.000847394
0.000846467
0.000845179
0.000843993
0.000842356
0.000841002
0.000839039
0.00083765
0.000835374
0.000851789
0.000851359
0.000850995
0.000850605
0.000850292
0.000849938
0.000849646
0.00084928
0.000848955
0.000848505
0.000848099
0.000847509
0.000846999
0.000846246
0.000845644
0.000844724
0.000844062
0.000842981
0.000851786
0.000851363
0.000850985
0.000850604
0.000850269
0.000849926
0.00084963
0.000849313
0.000849042
0.000848729
0.000848462
0.000848127
0.000847844
0.000847467
0.000847157
0.000846727
0.000846388
0.000845904
0.000851783
0.000851364
0.000850978
0.000850602
0.000850256
0.000849916
0.000849607
0.0008493
0.000849022
0.000848741
0.000848488
0.000848224
0.000847989
0.000847735
0.000847508
0.000847258
0.000847033
0.000846783
0.000851781
0.000851364
0.000850972
0.000850598
0.000850246
0.000849908
0.000849591
0.000849286
0.000849
0.000848723
0.000848463
0.000848211
0.000847975
0.000847745
0.000847527
0.000847316
0.000847114
0.000846918
0.00085178
0.000851363
0.000850969
0.000850594
0.000850239
0.000849901
0.00084958
0.000849274
0.000848984
0.000848707
0.000848443
0.000848191
0.000847951
0.000847721
0.000847502
0.000847292
0.000847092
0.0008469
0.000851779
0.000851362
0.000850967
0.000850591
0.000850234
0.000849894
0.000849572
0.000849265
0.000848973
0.000848694
0.000848428
0.000848174
0.000847932
0.000847701
0.00084748
0.000847268
0.000847066
0.000846873
0.000851779
0.000851362
0.000850965
0.000850588
0.00085023
0.00084989
0.000849567
0.000849258
0.000848965
0.000848685
0.000848418
0.000848163
0.000847919
0.000847686
0.000847464
0.000847251
0.000847047
0.000846853
0.000851779
0.000851362
0.000850965
0.000850588
0.000850229
0.000849889
0.000849565
0.000849256
0.000848962
0.000848681
0.000848413
0.000848157
0.000847913
0.000847679
0.000847456
0.000847242
0.000847038
0.000846842
0.000851779
0.000851362
0.000850965
0.000850589
0.000850231
0.000849891
0.000849567
0.000849259
0.000848965
0.000848684
0.000848416
0.000848161
0.000847916
0.000847683
0.000847459
0.000847245
0.000847039
0.000846843
0.000851779
0.000851363
0.000850967
0.000850592
0.000850235
0.000849896
0.000849573
0.000849266
0.000848972
0.000848693
0.000848423
0.000848168
0.000847919
0.000847682
0.00084745
0.00084723
0.000847011
0.000846805
0.000851778
0.000851366
0.000850968
0.000850599
0.00085024
0.000849907
0.00084958
0.000849274
0.000848964
0.000848671
0.000848364
0.000848071
0.000847755
0.000847454
0.000847122
0.00084681
0.000846455
0.000846134
0.000851777
0.000851374
0.000850971
0.000850615
0.00085024
0.000849889
0.000849478
0.000849053
0.000848529
0.000847977
0.0008473
0.000846603
0.000845765
0.000844938
0.000843953
0.000843027
0.000841915
0.000840937
0.000851802
0.00085141
0.00085097
0.000850549
0.00084986
0.000848967
0.000847607
0.000845979
0.000843902
0.000841634
0.000838953
0.000836212
0.000833114
0.00083011
0.000826759
0.000823676
0.000820179
0.000817172
0.000852138
0.000851403
0.000850234
0.000848252
0.000844472
0.000839355
0.000832711
0.000825762
0.000817912
0.000809998
0.000801612
0.000793623
0.000785326
0.0007777
0.000769736
0.000762692
0.000755114
0.000748785
0.000854143
0.000847718
0.000840125
0.000827122
0.000808707
0.000789646
0.00076997
0.000751414
0.0007333
0.00071689
0.000700927
0.000686773
0.000672821
0.000660661
0.000648368
0.000637929
0.000626941
0.000618007
0.00085497
0.000818336
0.000776229
0.000726634
0.000684937
0.000649855
0.000618457
0.000592018
0.000568376
0.000548305
0.000529681
0.000513985
0.00049874
0.000486007
0.000473191
0.000462697
0.00045161
0.000442792
0.000807487
0.000666879
0.000570551
0.000509853
0.000465647
0.000431192
0.00040413
0.000382497
0.000364189
0.000349061
0.000335935
0.000325071
0.000314473
0.00030624
0.000297954
0.00029136
0.000284272
0.000278923
0.000501854
0.000348404
0.00029269
0.000259173
0.000236321
0.000221176
0.000211542
0.000204014
0.000198479
0.000195058
0.000192217
0.000190366
0.000188581
0.000187438
0.000186163
0.000185473
0.000184553
0.000184141
7.27285e-05
7.02231e-05
6.79539e-05
6.56136e-05
6.33827e-05
6.12765e-05
5.94929e-05
5.79573e-05
5.67103e-05
5.5703e-05
5.49775e-05
5.44185e-05
5.41086e-05
5.38874e-05
5.38766e-05
5.39623e-05
5.40719e-05
5.43225e-05
1.68207e-07
4.4961e-06
8.40309e-06
1.18314e-05
1.50605e-05
1.86949e-05
2.29009e-05
2.79246e-05
3.3901e-05
4.08254e-05
4.85545e-05
5.69094e-05
6.56822e-05
7.47031e-05
8.37997e-05
9.28374e-05
0.00010167
0.000110189
0.000118265
0.00012583
0.000132801
0.000139198
0.000145037
0.00015049
0.000155721
0.000161055
0.000166427
0.00017098
0.000180621
0.00019035
0.000199769
0.000208845
0.000212386
0.000208645
0.000202286
0.000195239
0.000195225
0.000196584
0.000199631
0.000194348
4.18603e-05
4.60298e-05
4.8414e-05
4.91107e-05
5.02587e-05
5.14112e-05
5.24964e-05
5.36361e-05
5.47351e-05
5.58548e-05
5.69582e-05
5.80659e-05
5.91662e-05
6.02656e-05
6.13601e-05
6.24524e-05
6.35405e-05
6.46259e-05
6.57072e-05
6.67853e-05
6.78593e-05
6.89296e-05
6.99954e-05
7.10569e-05
7.21135e-05
7.31651e-05
7.42111e-05
7.52514e-05
7.62852e-05
7.73124e-05
7.83324e-05
7.93447e-05
8.03488e-05
8.13442e-05
8.23304e-05
8.33069e-05
8.42731e-05
8.52284e-05
8.61724e-05
8.71043e-05
8.80238e-05
8.89301e-05
8.98227e-05
9.07009e-05
9.15643e-05
9.24122e-05
9.3244e-05
9.40589e-05
9.48563e-05
9.56353e-05
9.63949e-05
9.71343e-05
9.78522e-05
9.85477e-05
9.92194e-05
9.98667e-05
0.00010049
0.000101091
0.000101676
0.000102236
0.000102775
0.000103292
0.000103787
0.000104259
0.000104708
0.000105134
0.000105537
0.000105915
0.00010627
0.000106601
0.000106907
0.000107188
0.000107444
0.000107676
0.000107882
0.000108064
0.00010822
0.00010835
0.000108456
0.000108536
0.00010859
0.000108619
0.000108623
0.000108601
0.000108554
0.000108482
0.000108385
0.000108262
0.000108117
0.000107951
0.000107756
0.000107534
0.000107286
0.00010702
0.000106734
0.00010642
0.000106086
0.000105729
0.000105352
0.000104953
0.000104534
0.000104095
0.000103636
0.000103159
0.000102662
0.000102148
0.000101616
0.000101068
0.000100502
9.99214e-05
9.93252e-05
9.87145e-05
9.80899e-05
9.7452e-05
9.68014e-05
9.61388e-05
9.54648e-05
9.47802e-05
9.40858e-05
9.33824e-05
9.26716e-05
9.19562e-05
9.12517e-05
9.07006e-05
9.02859e-05
8.9881e-05
8.94737e-05
8.90622e-05
8.86472e-05
8.82285e-05
8.78067e-05
8.73814e-05
8.69525e-05
8.65186e-05
8.60776e-05
8.5624e-05
8.51473e-05
8.4618e-05
8.39763e-05
8.20551e-05
8.67261e-07
2.42752e-05
5.53954e-05
7.71513e-05
9.09611e-05
0.000100088
0.000107368
0.00011445
0.000122151
0.000130747
0.000140203
0.000150345
0.000160942
0.000171771
0.000182627
0.000193333
0.000203726
0.000213662
0.000223011
0.000231673
0.000239577
0.000246712
0.000253125
0.000258956
0.00026444
0.000269471
0.000273392
0.000276723
0.000279784
0.000281709
0.000282145
0.000280455
0.000273947
0.000263668
0.000257088
0.000251382
0.000260102
0.000245758
0.000250518
0.000247731
0.000236541
0.000253415
0.000264117
0.000270167
0.000277269
0.000284555
0.000292389
0.000300209
0.000308256
0.000316373
0.000324612
0.000332933
0.000341342
0.00034983
0.000358398
0.000367045
0.000375771
0.000384577
0.000393464
0.000402432
0.000411484
0.000420619
0.000429838
0.000439141
0.000448529
0.000458
0.000467553
0.000477186
0.000486898
0.000496686
0.000506548
0.000516479
0.000526478
0.000536538
0.000546657
0.000556828
0.000567048
0.00057731
0.00058761
0.00059794
0.000608296
0.000618671
0.000629059
0.000639454
0.000649849
0.000660239
0.000670618
0.00068098
0.000691321
0.000701634
0.000711915
0.000722153
0.000732337
0.000742445
0.000752443
0.000762272
0.000771822
0.000780913
0.000789253
0.000797573
0.000805734
0.000813769
0.000821662
0.000829413
0.000837014
0.000844459
0.000851744
0.000858862
0.00086581
0.000872581
0.000879171
0.000885575
0.00089179
0.00089781
0.000903632
0.000909252
0.000914667
0.000919872
0.000924866
0.000929644
0.000934205
0.000938546
0.000942665
0.000946558
0.000950225
0.000953666
0.00095688
0.000959867
0.000962615
0.000965154
0.000967526
0.000969585
0.000971276
0.000972781
0.00097421
0.000975316
0.000976204
0.000976862
0.000977294
0.0009775
0.000977483
0.000977246
0.00097679
0.000976122
0.000975244
0.00097416
0.000972875
0.000971392
0.000969715
0.00096785
0.000965802
0.000963574
0.000961173
0.000958604
0.000955872
0.000952982
0.00094994
0.000946749
0.000943414
0.000939935
0.0009363
0.000932441
0.000928014
0.000921804
0.000914398
0.000906601
0.000898637
0.000890573
0.000882438
0.000874245
0.000866005
0.00085772
0.000849392
0.000841012
0.000832557
0.000823974
0.000815114
0.000805734
0.000794322
0.000764153
1.86159e-06
4.0824e-05
8.89673e-05
0.000125488
0.000151864
0.000170917
0.000185322
0.000197214
0.00020807
0.000218768
0.000229726
0.00024106
0.00025271
0.00026454
0.000276383
0.000288071
0.000299443
0.000310351
0.000320664
0.000330277
0.000339119
0.000347165
0.000354435
0.000360984
0.000366858
0.000372423
0.00037852
0.000385037
0.000392004
0.000399214
0.000406276
0.000412678
0.000418102
0.000423893
0.000431261
0.000439318
0.000449351
0.000456943
0.000468372
0.000479
0.000491374
0.000509327
0.000525378
0.000540834
0.000556602
0.000572517
0.000588709
0.000605038
0.000621554
0.000638213
0.000655025
0.000671978
0.000689073
0.000706307
0.000723681
0.000741197
0.000758855
0.000776656
0.000794602
0.000812692
0.000830927
0.00084931
0.000867838
0.000886512
0.000905328
0.000924283
0.000943374
0.000962597
0.000981946
0.00100141
0.001021
0.00104069
0.00106047
0.00108035
0.0011003
0.00112033
0.00114042
0.00116055
0.00118072
0.00120092
0.00122113
0.00124134
0.00126155
0.00128173
0.00130187
0.00132196
0.00134199
0.00136194
0.0013818
0.00140155
0.00142117
0.00144064
0.00145993
0.00147899
0.00149778
0.00151623
0.00153425
0.00155175
0.00156882
0.00158566
0.00160222
0.0016185
0.00163449
0.00165017
0.00166554
0.00168057
0.00169526
0.0017096
0.00172358
0.00173719
0.00175042
0.00176325
0.00177568
0.00178771
0.00179932
0.0018105
0.00182125
0.00183157
0.00184144
0.00185086
0.00185982
0.00186833
0.00187637
0.00188394
0.00189104
0.00189767
0.00190382
0.0019095
0.0019147
0.00191946
0.00192384
0.00192765
0.0019307
0.00193335
0.00193571
0.00193754
0.00193888
0.00193975
0.00194015
0.00194008
0.00193956
0.00193858
0.00193716
0.0019353
0.00193301
0.0019303
0.00192717
0.00192364
0.00191971
0.0019154
0.00191071
0.00190565
0.00190024
0.00189448
0.00188839
0.00188197
0.00187524
0.00186822
0.00186089
0.00185328
0.00184536
0.00183704
0.00182794
0.00181717
0.00180502
0.00179218
0.00177894
0.00176545
0.00175177
0.00173794
0.00172397
0.00170988
0.00169567
0.00168134
0.00166683
0.00165202
0.00163667
0.00162003
0.00159931
0.00155502
3.01452e-06
5.37229e-05
0.000114976
0.000162634
0.000197673
0.000223577
0.000243392
0.000259491
0.00027358
0.000286772
0.000299706
0.000312676
0.000325758
0.000338907
0.000352016
0.000364957
0.000377599
0.000389822
0.000401527
0.000412644
0.000423151
0.000433084
0.000442559
0.000451777
0.000461029
0.00047071
0.000481214
0.000492722
0.000505281
0.00051876
0.000532892
0.000547337
0.000562062
0.000577368
0.000592493
0.000609561
0.000627666
0.000646296
0.000666103
0.000686519
0.000707967
0.00073056
0.000752978
0.000775447
0.000798082
0.000820884
0.000843885
0.000867068
0.000890441
0.000913997
0.000937737
0.00096166
0.000985766
0.00101006
0.00103453
0.0010592
0.00108405
0.0011091
0.00113434
0.00115978
0.00118541
0.00121123
0.00123724
0.00126343
0.00128981
0.00131636
0.00134308
0.00136997
0.001397
0.00142418
0.0014515
0.00147894
0.00150649
0.00153414
0.00156187
0.00158968
0.00161754
0.00164544
0.00167337
0.00170131
0.00172924
0.00175714
0.001785
0.0018128
0.00184051
0.00186813
0.00189563
0.00192298
0.00195018
0.00197718
0.00200397
0.00203052
0.00205678
0.00208272
0.0021083
0.00213345
0.00215813
0.00218235
0.00220614
0.00222958
0.00225264
0.0022753
0.00229756
0.00231938
0.00234076
0.00236168
0.00238212
0.00240207
0.00242151
0.00244044
0.00245884
0.00247669
0.00249398
0.00251071
0.00252686
0.00254242
0.00255738
0.00257174
0.00258547
0.00259859
0.00261107
0.00262292
0.00263412
0.00264467
0.00265457
0.00266381
0.0026724
0.00268033
0.0026876
0.00269429
0.00270049
0.00270573
0.00271003
0.0027139
0.00271719
0.0027198
0.00272174
0.00272303
0.00272366
0.00272365
0.00272301
0.00272175
0.00271987
0.00271738
0.00271429
0.00271062
0.00270637
0.00270156
0.0026962
0.0026903
0.00268387
0.00267694
0.0026695
0.00266158
0.00265319
0.00264435
0.00263508
0.00262537
0.00261526
0.00260473
0.00259378
0.00258232
0.00257008
0.00255653
0.00254176
0.00252618
0.00251007
0.00249358
0.00247679
0.00245975
0.00244251
0.00242508
0.00240747
0.00238969
0.00237172
0.00235345
0.00233453
0.00231401
0.00228859
0.00224208
4.18394e-06
6.45763e-05
0.000136833
0.000193758
0.000236408
0.00026834
0.000292913
0.000312742
0.000329739
0.000345211
0.000359976
0.000374488
0.000388955
0.000403432
0.00041789
0.000432263
0.000446475
0.000460455
0.000474153
0.000487552
0.000500675
0.000513606
0.000526494
0.000539557
0.000553078
0.000567369
0.000582713
0.000599281
0.000617108
0.000636058
0.000655896
0.000676475
0.000697777
0.000719964
0.000742806
0.00076634
0.000790598
0.000815511
0.000841111
0.000867301
0.000894087
0.000921362
0.000948841
0.000976489
0.00100434
0.00103239
0.00106065
0.00108912
0.0011178
0.0011467
0.00117581
0.00120514
0.00123468
0.00126444
0.0012944
0.00132459
0.001355
0.00138563
0.00141649
0.00144757
0.00147887
0.00151038
0.00154211
0.00157404
0.00160617
0.00163848
0.00167098
0.00170365
0.00173648
0.00176945
0.00180256
0.00183579
0.00186913
0.00190255
0.00193604
0.00196959
0.00200318
0.00203679
0.00207039
0.00210397
0.00213752
0.002171
0.00220439
0.00223769
0.00227085
0.00230387
0.00233671
0.00236935
0.00240177
0.00243394
0.00246583
0.00249741
0.00252865
0.00255952
0.00258998
0.00262001
0.00264961
0.00267876
0.00270746
0.00273573
0.00276354
0.00279088
0.00281773
0.00284406
0.00286987
0.00289513
0.00291982
0.00294393
0.00296744
0.00299034
0.0030126
0.00303422
0.00305519
0.00307548
0.00309508
0.00311399
0.0031322
0.00314968
0.00316644
0.00318246
0.00319773
0.00321225
0.003226
0.00323899
0.00325121
0.00326265
0.00327331
0.0032832
0.00329233
0.00330088
0.00330858
0.00331525
0.00332088
0.00332607
0.00333045
0.00333404
0.00333684
0.00333887
0.00334013
0.00334062
0.00334036
0.00333936
0.00333763
0.00333517
0.003332
0.00332813
0.00332357
0.00331834
0.00331244
0.0033059
0.00329872
0.00329093
0.00328253
0.00327355
0.003264
0.00325389
0.00324325
0.00323209
0.00322043
0.00320827
0.00319559
0.00318236
0.00316838
0.00315337
0.00313734
0.00312051
0.00310308
0.00308517
0.00306688
0.00304827
0.00302938
0.00301026
0.00299091
0.00297136
0.00295158
0.00293145
0.00291067
0.00288826
0.00286101
0.00281687
5.30539e-06
7.37344e-05
0.000155275
0.000220208
0.000269676
0.000307117
0.000336101
0.000359429
0.000379189
0.000396854
0.000413404
0.000429441
0.000445303
0.000461149
0.000477039
0.000492977
0.000508945
0.000524928
0.000540923
0.000556949
0.00057306
0.000589348
0.000605952
0.000623048
0.000640844
0.000659553
0.000679352
0.000700344
0.000722532
0.000745813
0.000770033
0.000795065
0.000820845
0.000847381
0.000874654
0.00090264
0.000931296
0.000960565
0.000990391
0.00102072
0.00105149
0.00108264
0.00111407
0.00114575
0.00117766
0.00120981
0.00124218
0.00127478
0.0013076
0.00134066
0.00137394
0.00140745
0.0014412
0.00147518
0.0015094
0.00154386
0.00157855
0.00161346
0.00164859
0.00168394
0.00171951
0.00175528
0.00179126
0.00182744
0.0018638
0.00190034
0.00193705
0.00197391
0.00201092
0.00204806
0.00208532
0.00212268
0.00216012
0.00219764
0.00223521
0.00227281
0.00231043
0.00234804
0.00238563
0.00242317
0.00246065
0.00249804
0.00253532
0.00257247
0.00260946
0.00264628
0.00268289
0.00271927
0.0027554
0.00279125
0.00282679
0.00286199
0.00289684
0.00293129
0.00296533
0.00299894
0.0030321
0.00306479
0.00309702
0.00312876
0.00316
0.00319072
0.0032209
0.00325052
0.00327956
0.003308
0.00333581
0.003363
0.00338952
0.00341537
0.00344054
0.003465
0.00348873
0.00351174
0.00353399
0.00355548
0.00357619
0.00359612
0.00361526
0.00363358
0.00365109
0.00366776
0.00368361
0.00369861
0.00371276
0.00372606
0.00373851
0.0037501
0.00376095
0.0037711
0.00378018
0.00378821
0.00379526
0.00380171
0.00380727
0.00381195
0.00381578
0.00381874
0.00382086
0.00382214
0.00382259
0.00382223
0.00382105
0.00381907
0.0038163
0.00381275
0.00380845
0.00380339
0.00379759
0.00379107
0.00378385
0.00377593
0.00376734
0.00375809
0.00374819
0.00373768
0.00372655
0.00371484
0.00370255
0.00368969
0.00367627
0.00366225
0.00364752
0.00363195
0.0036155
0.00359828
0.00358044
0.00356206
0.00354325
0.00352406
0.00350454
0.00348474
0.0034647
0.00344444
0.00342396
0.00340318
0.00338185
0.00335905
0.00333196
0.00329193
6.33677e-06
8.13309e-05
0.000170635
0.000242532
0.000298143
0.00034069
0.000373856
0.000400572
0.000423059
0.000442928
0.000461298
0.000478907
0.000496211
0.000513474
0.000530839
0.00054838
0.000566135
0.000584131
0.000602398
0.00062098
0.000639936
0.00065935
0.000679327
0.000699991
0.000721477
0.000743907
0.000767379
0.000791944
0.000817589
0.000844244
0.000871804
0.000900175
0.000929288
0.000959114
0.000989635
0.00102082
0.00105263
0.00108502
0.00111791
0.00115127
0.00118504
0.00121917
0.00125361
0.00128833
0.00132331
0.00135854
0.00139401
0.0014297
0.00146562
0.00150177
0.00153815
0.00157476
0.00161159
0.00164865
0.00168593
0.00172344
0.00176117
0.00179911
0.00183727
0.00187563
0.00191419
0.00195295
0.0019919
0.00203103
0.00207033
0.0021098
0.00214942
0.00218918
0.00222907
0.00226908
0.00230919
0.00234939
0.00238966
0.00242999
0.00247035
0.00251073
0.00255112
0.00259149
0.00263181
0.00267209
0.00271228
0.00275237
0.00279234
0.00283217
0.00287182
0.00291129
0.00295054
0.00298955
0.00302829
0.00306675
0.00310489
0.00314269
0.00318012
0.00321717
0.0032538
0.00329
0.00332574
0.00336102
0.00339581
0.0034301
0.00346387
0.0034971
0.00352976
0.00356183
0.0035933
0.00362414
0.00365434
0.00368387
0.00371271
0.00374084
0.00376826
0.00379493
0.00382085
0.003846
0.00387036
0.00389393
0.00391667
0.00393859
0.00395967
0.0039799
0.00399927
0.00401777
0.00403539
0.00405212
0.00406795
0.00408288
0.00409691
0.00411005
0.0041225
0.00413397
0.00414446
0.0041538
0.00416228
0.00416998
0.00417674
0.00418259
0.00418752
0.00419155
0.00419468
0.00419693
0.00419829
0.00419879
0.00419843
0.00419722
0.00419517
0.0041923
0.00418862
0.00418413
0.00417886
0.00417282
0.00416602
0.00415848
0.00415021
0.00414123
0.00413156
0.00412122
0.00411022
0.00409857
0.0040863
0.00407342
0.00405993
0.00404582
0.00403102
0.00401547
0.00399915
0.0039821
0.00396442
0.00394618
0.00392747
0.00390833
0.00388882
0.00386901
0.00384894
0.00382866
0.00380819
0.00378749
0.00376638
0.00374407
0.00371817
0.00368226
7.24812e-06
8.74765e-05
0.000183163
0.000261067
0.000322187
0.000369465
0.000406615
0.000436642
0.000461855
0.000483974
0.000504233
0.000523482
0.000542283
0.000560995
0.000579839
0.00059895
0.000618414
0.000638292
0.000658635
0.000679491
0.000700919
0.000722982
0.000745756
0.000769325
0.000793778
0.000819153
0.000845502
0.000872839
0.000901149
0.000930381
0.000960467
0.000991335
0.00102293
0.0010552
0.00108812
0.00112165
0.00115575
0.00119038
0.00122549
0.00126103
0.00129697
0.00133326
0.00136988
0.00140678
0.00144396
0.00148138
0.00151904
0.00155692
0.00159502
0.00163332
0.00167184
0.00171057
0.00174951
0.00178865
0.001828
0.00186755
0.0019073
0.00194724
0.00198738
0.0020277
0.0020682
0.00210889
0.00214974
0.00219076
0.00223194
0.00227326
0.00231473
0.00235632
0.00239803
0.00243985
0.00248176
0.00252375
0.00256581
0.00260792
0.00265006
0.00269222
0.00273438
0.00277653
0.00281864
0.00286069
0.00290267
0.00294455
0.00298632
0.00302794
0.00306941
0.00311069
0.00315177
0.00319262
0.00323321
0.00327352
0.00331353
0.00335321
0.00339253
0.00343149
0.00347004
0.00350817
0.00354586
0.00358309
0.00361983
0.00365608
0.00369179
0.00372696
0.00376156
0.00379556
0.00382896
0.00386171
0.00389381
0.00392523
0.00395595
0.00398595
0.00401521
0.00404372
0.00407145
0.00409839
0.00412453
0.00414985
0.00417433
0.00419795
0.00422072
0.00424261
0.00426361
0.00428371
0.00430291
0.00432119
0.00433854
0.00435497
0.00437045
0.00438509
0.00439893
0.0044117
0.00442353
0.00443421
0.00444408
0.00445303
0.00446102
0.00446806
0.00447416
0.00447933
0.00448357
0.0044869
0.00448932
0.00449083
0.00449146
0.00449122
0.0044901
0.00448813
0.00448531
0.00448167
0.00447721
0.00447194
0.00446589
0.00445906
0.00445148
0.00444315
0.00443409
0.00442432
0.00441386
0.00440273
0.00439093
0.00437848
0.00436539
0.00435166
0.00433726
0.00432216
0.00430634
0.00428984
0.0042727
0.00425499
0.00423676
0.00421809
0.00419903
0.00417964
0.00415998
0.00414012
0.0041201
0.00409995
0.00407951
0.00405816
0.00403398
0.00400261
8.02119e-06
9.22805e-05
0.000193077
0.000276089
0.000342092
0.00039372
0.000434646
0.000467892
0.000495822
0.000520229
0.000542434
0.00056338
0.000583721
0.000603895
0.000624187
0.000644787
0.000665825
0.000687411
0.000709586
0.000732391
0.000755868
0.000780064
0.000805016
0.000830753
0.000857277
0.000884715
0.000913088
0.000942394
0.000972609
0.00100369
0.00103559
0.00106824
0.0011016
0.00113561
0.00117024
0.00120545
0.00124121
0.00127746
0.00131417
0.00135128
0.00138874
0.00142644
0.00146443
0.0015027
0.00154127
0.00158009
0.00161911
0.00165833
0.00169774
0.00173734
0.00177711
0.00181707
0.0018572
0.00189751
0.00193801
0.00197867
0.00201951
0.00206052
0.0021017
0.00214305
0.00218456
0.00222624
0.00226807
0.00231005
0.00235219
0.00239446
0.00243687
0.0024794
0.00252206
0.00256482
0.00260769
0.00265064
0.00269366
0.00273675
0.00277989
0.00282307
0.00286626
0.00290946
0.00295264
0.0029958
0.0030389
0.00308193
0.00312487
0.0031677
0.00321039
0.00325293
0.00329529
0.00333745
0.00337938
0.00342106
0.00346246
0.00350356
0.00354434
0.00358477
0.00362483
0.00366449
0.00370372
0.00374252
0.00378084
0.00381867
0.00385599
0.00389276
0.00392898
0.0039646
0.00399962
0.004034
0.00406773
0.00410077
0.00413312
0.00416474
0.00419562
0.00422574
0.00425507
0.00428361
0.00431134
0.00433822
0.00436427
0.00438944
0.00441374
0.00443715
0.00445966
0.00448125
0.00450192
0.00452165
0.00454044
0.00455828
0.00457516
0.00459123
0.00460633
0.00462044
0.00463358
0.00464564
0.00465685
0.00466708
0.00467632
0.0046846
0.00469191
0.00469828
0.0047037
0.00470819
0.00471176
0.00471441
0.00471615
0.00471699
0.00471696
0.00471605
0.00471428
0.00471166
0.00470821
0.00470393
0.00469885
0.00469298
0.00468632
0.00467891
0.00467074
0.00466184
0.00465222
0.0046419
0.00463089
0.00461921
0.00460686
0.00459386
0.00458019
0.00456584
0.0045508
0.0045351
0.00451877
0.00450186
0.00448441
0.0044665
0.00444817
0.00442949
0.00441054
0.00439139
0.00437213
0.00435279
0.00433329
0.00431315
0.00429084
0.00426384
8.64614e-06
9.58512e-05
0.000200573
0.000287929
0.000358099
0.000413692
0.000458159
0.000494501
0.000525102
0.000551801
0.000575979
0.000598648
0.00062054
0.000642182
0.000663882
0.000685828
0.000708136
0.00073084
0.000754167
0.000778206
0.000803005
0.000828602
0.000855026
0.000882307
0.000910489
0.000939561
0.000969522
0.00100034
0.00103198
0.00106441
0.00109757
0.00113142
0.00116592
0.00120103
0.0012367
0.0012729
0.00130957
0.00134668
0.00138418
0.00142205
0.00146026
0.00149882
0.00153766
0.00157675
0.001616
0.00165544
0.00169504
0.00173479
0.00177468
0.0018147
0.00185487
0.00189519
0.00193565
0.00197625
0.00201701
0.00205791
0.00209897
0.00214018
0.00218154
0.00222306
0.00226473
0.00230656
0.00234855
0.00239069
0.00243298
0.00247543
0.00251803
0.00256077
0.00260366
0.00264667
0.00268982
0.00273308
0.00277645
0.00281993
0.00286349
0.00290712
0.00295082
0.00299456
0.00303834
0.00308212
0.0031259
0.00316966
0.00321337
0.00325702
0.00330058
0.00334403
0.00338734
0.0034305
0.00347347
0.00351623
0.00355876
0.00360103
0.00364301
0.00368468
0.003726
0.00376696
0.00380753
0.00384768
0.00388738
0.00392661
0.00396535
0.00400356
0.00404122
0.0040783
0.00411479
0.00415065
0.00418586
0.0042204
0.00425424
0.00428736
0.00431974
0.00435136
0.0043822
0.00441224
0.00444145
0.00446983
0.00449735
0.004524
0.00454977
0.00457463
0.00459859
0.00462162
0.00464371
0.00466485
0.00468504
0.00470427
0.00472255
0.00473994
0.00475634
0.00477179
0.00478626
0.00479973
0.00481228
0.00482381
0.00483433
0.00484388
0.00485246
0.00486008
0.00486675
0.00487247
0.00487726
0.00488113
0.00488408
0.00488613
0.00488729
0.00488757
0.00488698
0.00488553
0.00488324
0.00488012
0.00487618
0.00487144
0.00486591
0.0048596
0.00485253
0.00484472
0.00483617
0.0048269
0.00481692
0.00480625
0.00479491
0.00478289
0.0047702
0.00475684
0.00474281
0.00472812
0.0047128
0.00469689
0.00468044
0.00466349
0.0046461
0.00462836
0.00461033
0.0045921
0.00457378
0.00455543
0.00453703
0.00451819
0.00449774
0.0044743
9.1216e-06
9.83157e-05
0.000205895
0.000296815
0.00037051
0.000429638
0.000477369
0.000516639
0.000549816
0.000578758
0.000604912
0.000629261
0.000652511
0.000675108
0.000697608
0.00072035
0.000743557
0.00076743
0.000792044
0.000817392
0.000843501
0.000870395
0.000898098
0.000926622
0.000955971
0.00098612
0.00101703
0.00104869
0.00108107
0.00111416
0.0011479
0.00118227
0.00121722
0.0012527
0.00128869
0.00132512
0.00136198
0.00139921
0.00143678
0.00147467
0.00151283
0.00155125
0.00158988
0.00162871
0.00166781
0.00170713
0.00174654
0.00178599
0.00182551
0.00186511
0.0019048
0.00194459
0.0019845
0.00202453
0.00206469
0.00210498
0.00214542
0.002186
0.00222674
0.00226764
0.00230871
0.00234995
0.00239138
0.00243298
0.00247478
0.00251677
0.00255895
0.00260132
0.00264388
0.00268664
0.00272957
0.00277268
0.00281597
0.00285941
0.00290301
0.00294675
0.00299062
0.0030346
0.00307868
0.00312283
0.00316705
0.00321131
0.00325558
0.00329985
0.0033441
0.00338829
0.00343241
0.00347642
0.0035203
0.00356402
0.00360756
0.00365088
0.00369396
0.00373677
0.00377927
0.00382144
0.00386325
0.00390468
0.00394568
0.00398623
0.00402631
0.00406589
0.00410494
0.00414342
0.00418132
0.00421861
0.00425526
0.00429124
0.00432653
0.00436111
0.00439495
0.00442803
0.00446033
0.00449183
0.0045225
0.00455234
0.00458132
0.00460942
0.00463663
0.00466294
0.00468833
0.00471278
0.0047363
0.00475885
0.00478045
0.00480107
0.00482074
0.00483945
0.00485719
0.00487401
0.00488985
0.00490471
0.00491868
0.00493154
0.00494338
0.00495424
0.00496414
0.00497307
0.00498105
0.00498809
0.00499418
0.00499935
0.0050036
0.00500695
0.00500941
0.00501098
0.00501168
0.00501153
0.00501053
0.0050087
0.00500605
0.00500259
0.00499834
0.00499331
0.00498752
0.00498096
0.00497367
0.00496564
0.0049569
0.00494746
0.00493732
0.00492649
0.004915
0.00490282
0.00488998
0.00487649
0.00486236
0.00484763
0.00483234
0.00481654
0.00480027
0.00478363
0.00476669
0.00474954
0.00473231
0.00471507
0.00469785
0.00468035
0.00466166
0.00464121
9.45336e-06
9.98147e-05
0.000209282
0.000302972
0.000379602
0.000441818
0.000492501
0.000534503
0.000570084
0.00060099
0.000628505
0.000653956
0.000678243
0.000702091
0.000725901
0.000749906
0.000774303
0.000799225
0.000824698
0.000850824
0.000877652
0.000905212
0.000933517
0.000962569
0.000992358
0.00102286
0.00105406
0.0010859
0.00111837
0.00115145
0.00118509
0.00121926
0.00125392
0.00128904
0.00132457
0.00136047
0.0013967
0.00143324
0.00147006