/*--------------------------------*- C++ -*----------------------------------*\
| =========                 |                                                 |
| \\      /  F ield         | OpenFOAM: The Open Source CFD Toolbox           |
|  \\    /   O peration     | Version:  5.0                                   |
|   \\  /    A nd           | Web:      www.OpenFOAM.org                      |
|    \\/     M anipulation  |                                                 |
\*---------------------------------------------------------------------------*/
FoamFile
{
    version     2.0;
    format      ascii;
    class       volScalarField;
    location    "287";
    object      p;
}
// * * * * * * * * * * * * * * * * * * * * * * * * * * * * * * * * * * * * * //

dimensions      [0 2 -2 0 0 0 0];

internalField   nonuniform List<scalar> 
12225
(
-1.32037
-3.50835
-4.60847
-4.92928
-5.11077
-5.28009
-5.41198
-5.50762
-5.58485
-5.65303
-5.71404
-5.77021
-5.82173
-5.87045
-5.91696
-5.95751
-6.00811
-5.99194
-4.48274
-5.25158
-5.41217
-5.3201
-5.30779
-5.37592
-5.45384
-5.52006
-5.5803
-5.63851
-5.69412
-5.74631
-5.79586
-5.84318
-5.88936
-5.93161
-5.98025
-6.01823
-4.88337
-4.86919
-4.9967
-5.07524
-5.17036
-5.2908
-5.39841
-5.48371
-5.55614
-5.62225
-5.68332
-5.73947
-5.79221
-5.84199
-5.89041
-5.93564
-5.9866
-6.03183
-4.76198
-4.70536
-4.9471
-5.10559
-5.20753
-5.314
-5.41205
-5.49254
-5.56187
-5.62568
-5.68516
-5.74033
-5.79241
-5.84183
-5.89
-5.93626
-5.98581
-6.03403
-4.75205
-4.77644
-5.00459
-5.14629
-5.2301
-5.32241
-5.41397
-5.49211
-5.5602
-5.62311
-5.68207
-5.73711
-5.7892
-5.83887
-5.88731
-5.93452
-5.98342
-6.03295
-4.81014
-4.85894
-5.03329
-5.15731
-5.23901
-5.32707
-5.41543
-5.49233
-5.55981
-5.62214
-5.68069
-5.73556
-5.78756
-5.83729
-5.88574
-5.9332
-5.98141
-6.03037
-4.87043
-4.91457
-5.04982
-5.16625
-5.25016
-5.33451
-5.41872
-5.49372
-5.56027
-5.62183
-5.67978
-5.73431
-5.78606
-5.83566
-5.8839
-5.93119
-5.97855
-6.02613
-4.92388
-4.96147
-5.07149
-5.17988
-5.26302
-5.34282
-5.4225
-5.4953
-5.56075
-5.62146
-5.6787
-5.73279
-5.7842
-5.83353
-5.8814
-5.92821
-5.97458
-6.02052
-4.97351
-5.00663
-5.09761
-5.19565
-5.27586
-5.3514
-5.42679
-5.49719
-5.56134
-5.62104
-5.67747
-5.73097
-5.78192
-5.83081
-5.87813
-5.92423
-5.96945
-6.01368
-5.02047
-5.04972
-5.12529
-5.21258
-5.28889
-5.36058
-5.43188
-5.49961
-5.5622
-5.62073
-5.67619
-5.72894
-5.77925
-5.82752
-5.87413
-5.91932
-5.9633
-6.00585
-5.06467
-5.09018
-5.15342
-5.23065
-5.30242
-5.37036
-5.43773
-5.50261
-5.56339
-5.62058
-5.67493
-5.72676
-5.77627
-5.82376
-5.86949
-5.91363
-5.95631
-5.99726
-5.10259
-5.12495
-5.17918
-5.24805
-5.31524
-5.37972
-5.44365
-5.50583
-5.5648
-5.62062
-5.67382
-5.72467
-5.77331
-5.81994
-5.86476
-5.90787
-5.94934
-5.98889
-5.13759
-5.15732
-5.20417
-5.26559
-5.32812
-5.38918
-5.44986
-5.50937
-5.56642
-5.62079
-5.67277
-5.72255
-5.77022
-5.81592
-5.85976
-5.9018
-5.94207
-5.98033
-5.17423
-5.19143
-5.23146
-5.2855
-5.34284
-5.40004
-5.45719
-5.51371
-5.5685
-5.62111
-5.67159
-5.72005
-5.76653
-5.81107
-5.85372
-5.89452
-5.93347
-5.97037
-5.21126
-5.22605
-5.26005
-5.30714
-5.35903
-5.41201
-5.46545
-5.51875
-5.57096
-5.6215
-5.67022
-5.7171
-5.76213
-5.80529
-5.84657
-5.88597
-5.9235
-5.95899
-5.24671
-5.25933
-5.28826
-5.3292
-5.37574
-5.42441
-5.47411
-5.52409
-5.57352
-5.62175
-5.66847
-5.71356
-5.75693
-5.79852
-5.83827
-5.87618
-5.91223
-5.94632
-5.27765
-5.28852
-5.31346
-5.34937
-5.39121
-5.43586
-5.48203
-5.52885
-5.57552
-5.62136
-5.66598
-5.70916
-5.75075
-5.79066
-5.82882
-5.8652
-5.89978
-5.93251
-5.29974
-5.30938
-5.33161
-5.36403
-5.40241
-5.44396
-5.48729
-5.53151
-5.5758
-5.6195
-5.66216
-5.70353
-5.74341
-5.78171
-5.81834
-5.85326
-5.88646
-5.91793
-5.30608
-5.31522
-5.3364
-5.36749
-5.4045
-5.44467
-5.48659
-5.52937
-5.57224
-5.61455
-5.65585
-5.69585
-5.73441
-5.7714
-5.80678
-5.8405
-5.87258
-5.90304
-5.2896
-5.29935
-5.32191
-5.35492
-5.39383
-5.43541
-5.47823
-5.52158
-5.56475
-5.60711
-5.64822
-5.68788
-5.72597
-5.76242
-5.7972
-5.8303
-5.86175
-5.8916
-5.26251
-5.27328
-5.29851
-5.33546
-5.37814
-5.42253
-5.46747
-5.51253
-5.55698
-5.60012
-5.64167
-5.68153
-5.71967
-5.75603
-5.79062
-5.82348
-5.85465
-5.88422
-5.22712
-5.23892
-5.26823
-5.31174
-5.35992
-5.40778
-5.45545
-5.503
-5.54937
-5.59376
-5.63608
-5.67642
-5.71481
-5.75126
-5.78582
-5.81858
-5.84961
-5.87901
-5.18646
-5.19834
-5.23275
-5.28594
-5.34138
-5.39322
-5.44396
-5.49424
-5.54258
-5.58826
-5.63149
-5.67247
-5.71126
-5.74791
-5.78255
-5.8153
-5.84627
-5.87561
-5.14269
-5.15364
-5.19536
-5.2597
-5.32178
-5.37833
-5.43381
-5.48751
-5.5376
-5.58423
-5.62816
-5.66965
-5.70872
-5.74548
-5.78014
-5.81285
-5.84376
-5.87299
-5.09575
-5.10118
-5.16378
-5.24191
-5.30375
-5.36188
-5.42288
-5.48108
-5.53343
-5.58131
-5.62614
-5.66822
-5.70757
-5.74443
-5.77906
-5.81171
-5.84254
-5.87175
-5.05245
-5.01599
-5.12547
-5.23637
-5.29851
-5.35368
-5.41575
-5.47533
-5.52839
-5.57694
-5.62247
-5.6651
-5.70478
-5.74184
-5.77659
-5.8093
-5.84017
-5.86938
-5.06653
-4.90752
-5.0364
-5.19041
-5.28043
-5.35168
-5.42047
-5.48123
-5.53386
-5.58197
-5.62708
-5.66917
-5.70828
-5.74477
-5.77898
-5.8112
-5.84166
-5.8706
-5.18924
-5.00922
-5.02339
-5.09547
-5.18375
-5.28285
-5.37341
-5.44703
-5.50857
-5.56355
-5.61369
-5.65929
-5.70092
-5.73924
-5.77476
-5.80794
-5.83923
-5.86926
-4.89655
-5.48811
-5.57692
-5.4526
-5.39818
-5.42522
-5.47206
-5.51515
-5.55655
-5.59856
-5.63989
-5.67905
-5.71583
-5.75039
-5.78279
-5.81319
-5.84179
-5.8704
-1.90829
-3.67105
-4.67569
-4.97477
-5.12385
-5.26736
-5.38125
-5.46206
-5.52613
-5.58282
-5.63391
-5.67978
-5.72129
-5.75935
-5.79448
-5.82647
-5.85518
-5.87885
-6.73843
-6.73845
-6.73881
-6.73956
-6.74054
-6.74168
-6.74298
-6.74447
-6.74619
-6.74819
-6.75052
-6.75322
-6.75635
-6.75996
-6.76409
-6.76879
-6.77411
-6.78009
-6.78676
-6.79417
-6.80236
-6.81134
-6.82115
-6.8318
-6.84333
-6.85579
-6.86926
-6.88378
-6.89905
-6.91439
-6.92943
-6.94533
-6.96405
-6.98552
-7.00882
-7.03358
-7.05983
-7.08648
-7.11159
-7.13833
-7.16902
-7.1965
-7.21794
-7.24163
-7.26882
-7.2968
-7.32563
-7.35501
-7.38479
-7.41482
-7.44498
-7.47516
-7.50525
-7.53515
-7.56477
-7.594
-7.62274
-7.65089
-7.67833
-7.70496
-7.73064
-7.75526
-7.77869
-7.80078
-7.82139
-7.84038
-7.85758
-7.87284
-7.88599
-7.89685
-7.90525
-7.91101
-7.91394
-7.91386
-7.91057
-7.90388
-7.89359
-7.87951
-7.86143
-7.83916
-7.81251
-7.78129
-7.74529
-7.70433
-7.65824
-7.60682
-7.54991
-7.48733
-7.41892
-7.34452
-7.26402
-7.17729
-7.08418
-6.98456
-6.8784
-6.76576
-6.64676
-6.52119
-6.38847
-6.24846
-6.10142
-5.94741
-5.78645
-5.61858
-5.44383
-5.26224
-5.07387
-4.8788
-4.67711
-4.46892
-4.25434
-4.03352
-3.80658
-3.57372
-3.33509
-3.0909
-2.84134
-2.58663
-2.32699
-2.06269
-1.79397
-1.5211
-1.24434
-0.963964
-0.680259
-0.393527
-0.104069
0.187797
0.481771
0.777549
1.07482
1.37323
1.67244
1.97213
2.272
2.57174
2.87102
3.16951
3.4669
3.7629
4.0572
4.34952
4.63959
4.92712
5.21187
5.49359
5.77204
6.04698
6.31822
6.58555
6.84877
7.10772
7.36223
7.61214
7.85733
8.09767
8.33304
8.56335
8.78852
9.00847
9.22314
9.43251
9.63662
9.83551
10.0289
10.2167
10.3987
10.5752
10.746
10.9113
11.0709
11.2251
11.3738
11.5171
11.6553
11.7887
11.9188
12.0469
12.1847
12.3288
-6.73738
-6.73764
-6.73813
-6.73881
-6.73948
-6.74007
-6.74069
-6.74148
-6.74255
-6.74396
-6.74575
-6.74795
-6.7506
-6.75373
-6.75735
-6.76152
-6.76626
-6.77161
-6.77761
-6.78428
-6.79166
-6.79976
-6.80861
-6.81821
-6.82856
-6.83965
-6.85145
-6.86385
-6.87679
-6.89066
-6.90656
-6.92513
-6.9446
-6.96382
-6.98331
-7.00312
-7.02287
-7.0439
-7.0679
-7.0945
-7.11866
-7.14538
-7.18022
-7.2149
-7.24539
-7.27529
-7.30506
-7.33491
-7.36485
-7.39489
-7.42495
-7.45497
-7.48488
-7.51459
-7.54402
-7.57307
-7.60165
-7.62966
-7.65699
-7.68352
-7.70915
-7.73375
-7.75718
-7.77932
-7.80001
-7.81913
-7.83649
-7.85196
-7.86536
-7.87652
-7.88527
-7.89142
-7.89478
-7.89519
-7.89243
-7.88632
-7.87667
-7.86327
-7.84593
-7.82446
-7.79865
-7.76832
-7.73327
-7.69331
-7.64827
-7.59797
-7.54223
-7.48087
-7.41375
-7.34071
-7.26164
-7.17639
-7.08483
-6.98684
-6.88231
-6.7711
-6.653
-6.52789
-6.39599
-6.25739
-6.11193
-5.95957
-5.8003
-5.63413
-5.4611
-5.28122
-5.09457
-4.90122
-4.70125
-4.49476
-4.28187
-4.06272
-3.83745
-3.60622
-3.3692
-3.12659
-2.87858
-2.62538
-2.36722
-2.10435
-1.83702
-1.56549
-1.29001
-1.01087
-0.728345
-0.44273
-0.154332
0.136538
0.429577
0.72449
1.02097
1.31865
1.61721
1.91632
2.21569
2.515
2.81392
3.11213
3.40932
3.70519
3.99944
4.29179
4.58195
4.86966
5.15465
5.43668
5.71551
5.99091
6.26266
6.53056
6.79442
7.05406
7.30932
7.56004
7.80608
8.04732
8.28364
8.51495
8.74115
8.96219
9.17804
9.38865
9.59378
9.79314
9.98677
10.1748
10.3572
10.5341
10.7053
10.871
11.0312
11.1859
11.3352
11.4793
11.6184
11.753
11.8848
12.0147
12.1552
12.294
-6.73371
-6.7346
-6.73587
-6.73697
-6.73767
-6.73811
-6.7385
-6.73902
-6.73981
-6.74094
-6.74248
-6.74445
-6.74688
-6.74979
-6.75323
-6.7572
-6.76176
-6.76692
-6.77272
-6.77918
-6.78634
-6.79422
-6.80283
-6.81221
-6.82238
-6.83337
-6.84522
-6.85792
-6.8715
-6.88621
-6.90251
-6.92058
-6.93993
-6.96012
-6.98111
-7.00267
-7.02451
-7.04708
-7.07117
-7.09606
-7.12027
-7.14521
-7.17294
-7.20188
-7.23068
-7.2597
-7.2889
-7.31824
-7.3477
-7.37722
-7.40676
-7.43625
-7.46563
-7.49483
-7.52376
-7.55234
-7.58047
-7.60806
-7.63501
-7.6612
-7.68653
-7.71086
-7.73408
-7.75604
-7.77662
-7.79565
-7.81299
-7.82848
-7.84196
-7.85325
-7.86218
-7.86858
-7.87226
-7.87303
-7.8707
-7.86508
-7.85598
-7.8432
-7.82655
-7.80583
-7.78084
-7.75139
-7.71729
-7.67836
-7.6344
-7.58525
-7.53072
-7.47065
-7.40486
-7.33322
-7.2556
-7.17184
-7.08183
-6.98546
-6.88262
-6.77319
-6.65699
-6.53386
-6.4039
-6.26718
-6.12364
-5.97325
-5.81597
-5.65183
-5.48084
-5.30303
-5.11846
-4.92719
-4.72932
-4.52492
-4.31413
-4.09706
-3.87387
-3.64469
-3.40972
-3.16913
-2.92311
-2.67188
-2.41566
-2.15468
-1.88921
-1.61948
-1.34577
-1.06833
-0.787462
-0.503443
-0.216583
0.0728103
0.364435
0.658003
0.953199
1.24968
1.5471
1.84517
2.14357
2.44198
2.74008
3.03756
3.3341
3.6294
3.92315
4.21509
4.50492
4.79237
5.07718
5.35911
5.63791
5.91335
6.1852
6.45328
6.71738
6.97732
7.23294
7.48407
7.73057
7.97232
8.2092
8.44109
8.66789
8.88952
9.10589
9.31698
9.52275
9.72312
9.91804
10.1074
10.2912
10.4694
10.6421
10.8091
10.9706
11.1267
11.2774
11.4229
11.5636
11.7001
11.8342
11.9659
12.1087
12.2356
-6.72766
-6.7293
-6.73177
-6.7338
-6.73509
-6.73592
-6.73659
-6.73728
-6.73815
-6.73929
-6.74079
-6.7427
-6.74506
-6.7479
-6.75126
-6.75516
-6.75963
-6.76469
-6.77039
-6.77674
-6.78377
-6.79151
-6.79999
-6.80923
-6.81928
-6.83018
-6.84197
-6.85469
-6.8684
-6.88323
-6.89935
-6.91682
-6.93551
-6.95523
-6.97589
-6.99736
-7.0195
-7.04241
-7.06635
-7.09109
-7.11626
-7.14198
-7.16855
-7.19583
-7.22357
-7.25173
-7.28021
-7.30893
-7.33782
-7.36683
-7.39588
-7.42491
-7.45385
-7.48264
-7.51119
-7.53941
-7.56722
-7.59452
-7.62122
-7.64719
-7.67234
-7.69653
-7.71964
-7.74155
-7.7621
-7.78115
-7.79856
-7.81415
-7.82778
-7.83927
-7.84844
-7.85512
-7.85913
-7.86028
-7.85837
-7.85323
-7.84464
-7.83243
-7.81639
-7.79632
-7.77204
-7.74335
-7.71005
-7.67196
-7.6289
-7.58068
-7.52713
-7.46808
-7.40336
-7.33282
-7.25632
-7.17373
-7.08489
-6.98971
-6.88806
-6.77985
-6.66494
-6.54325
-6.41478
-6.27954
-6.13749
-5.9886
-5.83286
-5.67027
-5.50084
-5.3246
-5.14161
-4.95194
-4.75565
-4.55285
-4.34365
-4.12817
-3.90656
-3.67895
-3.44554
-3.20648
-2.96198
-2.71224
-2.45749
-2.19796
-1.93389
-1.66554
-1.39316
-1.11702
-0.837409
-0.554604
-0.268915
0.0193551
0.30991
0.602463
0.896683
1.19223
1.48879
1.78607
2.08373
2.38146
2.67894
2.97585
3.27189
3.56675
3.86013
4.15174
4.44131
4.72857
5.01324
5.29508
5.57385
5.84931
6.12125
6.38946
6.65373
6.9139
7.16978
7.42122
7.66807
7.91018
8.14745
8.37978
8.60707
8.82922
9.04616
9.25782
9.4642
9.6653
9.86106
10.0513
10.2361
10.4152
10.5888
10.7568
10.9192
11.0762
11.2279
11.3745
11.5163
11.6539
11.789
11.9206
12.0617
12.1746
-6.7206
-6.72305
-6.72696
-6.73018
-6.73228
-6.73375
-6.73492
-6.73602
-6.7372
-6.73859
-6.74029
-6.74237
-6.74487
-6.74784
-6.75132
-6.75533
-6.75991
-6.76508
-6.77089
-6.77735
-6.7845
-6.79236
-6.80098
-6.81037
-6.82059
-6.83168
-6.84367
-6.85663
-6.8706
-6.88567
-6.90191
-6.91933
-6.93787
-6.95743
-6.97792
-6.99924
-7.02132
-7.04414
-7.06775
-7.0921
-7.11709
-7.14274
-7.16901
-7.1958
-7.22302
-7.25063
-7.27857
-7.30678
-7.33519
-7.36374
-7.39237
-7.42101
-7.44959
-7.47804
-7.50628
-7.53423
-7.56179
-7.58887
-7.61538
-7.6412
-7.66622
-7.69032
-7.71337
-7.73525
-7.75581
-7.77491
-7.79239
-7.80809
-7.82186
-7.83352
-7.84291
-7.84983
-7.85411
-7.85556
-7.854
-7.84922
-7.84104
-7.82926
-7.81369
-7.79412
-7.77037
-7.74224
-7.70953
-7.67206
-7.62965
-7.58211
-7.52926
-7.47094
-7.40698
-7.33722
-7.26153
-7.17975
-7.09177
-6.99745
-6.89668
-6.78936
-6.6754
-6.55472
-6.42729
-6.29308
-6.15207
-6.00423
-5.84954
-5.68801
-5.51964
-5.34448
-5.16257
-4.97398
-4.77878
-4.57707
-4.36894
-4.15455
-3.934
-3.70746
-3.4751
-3.23708
-2.99361
-2.74489
-2.49113
-2.23258
-1.96946
-1.70204
-1.43056
-1.15529
-0.87652
-0.594533
-0.309628
-0.0221106
0.267739
0.559616
0.853186
1.14811
1.44411
1.74087
2.03806
2.33535
2.63243
2.929
3.22473
3.51932
3.81248
4.10392
4.39336
4.68053
4.96516
5.247
5.52581
5.80135
6.07341
6.34177
6.60624
6.86663
7.12276
7.37448
7.62165
7.86413
8.1018
8.33455
8.56228
8.78489
9.00231
9.21446
9.42129
9.6228
9.81895
10.0097
10.1948
10.3745
10.5485
10.717
10.88
11.0376
11.1898
11.3369
11.4792
11.6171
11.7521
11.8823
12.0199
12.12
-6.71398
-6.71719
-6.72246
-6.72686
-6.72985
-6.73204
-6.73382
-6.73544
-6.73707
-6.73886
-6.74092
-6.74332
-6.74613
-6.74939
-6.75315
-6.75744
-6.7623
-6.76775
-6.77384
-6.7806
-6.78805
-6.79623
-6.80517
-6.81491
-6.82549
-6.83693
-6.84929
-6.8626
-6.87691
-6.89226
-6.90867
-6.92616
-6.94467
-6.96415
-6.98452
-7.00573
-7.0277
-7.05041
-7.07382
-7.09787
-7.12254
-7.1478
-7.17363
-7.19996
-7.22673
-7.2539
-7.2814
-7.30919
-7.3372
-7.36538
-7.39367
-7.422
-7.4503
-7.47849
-7.5065
-7.53424
-7.56163
-7.58857
-7.61497
-7.6407
-7.66566
-7.68974
-7.71279
-7.7347
-7.75531
-7.77449
-7.79208
-7.80792
-7.82184
-7.83369
-7.84327
-7.85042
-7.85495
-7.85668
-7.8554
-7.85094
-7.84309
-7.83166
-7.81646
-7.79728
-7.77393
-7.74622
-7.71395
-7.67693
-7.63499
-7.58794
-7.53559
-7.47779
-7.41435
-7.34514
-7.27001
-7.18881
-7.10141
-7.00769
-6.90754
-6.80086
-6.68756
-6.56756
-6.44083
-6.30733
-6.16702
-6.01988
-5.8659
-5.70507
-5.53742
-5.36298
-5.1818
-4.99393
-4.79946
-4.59847
-4.39108
-4.17741
-3.95759
-3.73177
-3.50012
-3.26282
-3.02005
-2.77202
-2.51895
-2.26107
-1.99861
-1.73183
-1.46097
-1.18631
-0.90813
-0.626713
-0.342361
-0.0553689
0.233984
0.525376
0.818472
1.11296
1.40855
1.70495
2.00179
2.29877
2.59557
2.89187
3.18738
3.48178
3.77478
4.0661
4.35544
4.64254
4.92714
5.20898
5.48782
5.76343
6.03557
6.30405
6.56866
6.82922
7.08556
7.33752
7.58495
7.82772
8.06569
8.29875
8.52681
8.74977
8.96753
9.18003
9.38718
9.58897
9.78539
9.97636
10.1618
10.3418
10.5161
10.685
10.8483
11.0062
11.1587
11.3061
11.4486
11.5863
11.7206
11.8487
11.9829
12.0716
-6.70886
-6.71278
-6.71917
-6.72458
-6.72841
-6.73131
-6.73373
-6.73591
-6.73806
-6.74032
-6.74281
-6.74563
-6.74883
-6.75248
-6.75662
-6.76129
-6.76653
-6.77237
-6.77885
-6.78599
-6.79384
-6.80243
-6.81178
-6.82192
-6.8329
-6.84474
-6.85747
-6.87113
-6.88573
-6.90132
-6.91788
-6.93541
-6.95389
-6.97327
-6.99351
-7.01455
-7.03635
-7.05888
-7.08209
-7.10593
-7.13035
-7.15534
-7.18085
-7.20685
-7.23328
-7.26012
-7.2873
-7.31477
-7.3425
-7.37041
-7.39845
-7.42656
-7.45466
-7.48269
-7.51056
-7.53819
-7.56549
-7.59237
-7.61873
-7.64446
-7.66944
-7.69355
-7.71667
-7.73866
-7.75937
-7.77867
-7.7964
-7.8124
-7.8265
-7.83853
-7.84832
-7.85568
-7.86044
-7.8624
-7.86137
-7.85717
-7.84958
-7.83843
-7.8235
-7.80461
-7.78156
-7.75415
-7.72219
-7.68549
-7.64387
-7.59713
-7.54512
-7.48765
-7.42456
-7.3557
-7.28092
-7.20009
-7.11306
-7.01972
-6.91995
-6.81367
-6.70078
-6.58121
-6.45492
-6.32185
-6.18198
-6.03527
-5.88173
-5.72135
-5.55415
-5.38016
-5.19943
-5.01201
-4.81801
-4.61748
-4.41056
-4.19736
-3.97801
-3.75266
-3.52148
-3.28465
-3.04235
-2.79478
-2.54218
-2.28476
-2.02276
-1.75641
-1.48599
-1.21176
-0.933991
-0.652979
-0.369026
-0.0824065
0.206577
0.497603
0.790341
1.0845
1.37979
1.6759
1.97248
2.26921
2.56578
2.86188
3.15719
3.45143
3.74429
4.03548
4.32473
4.61176
4.89631
5.17812
5.45695
5.73257
6.00475
6.2733
6.538
6.79867
7.05515
7.30727
7.55487
7.79782
8.036
8.26928
8.49757
8.72076
8.93877
9.15151
9.3589
9.56092
9.75755
9.94873
10.1344
10.3146
10.4892
10.6583
10.8219
10.98
11.1327
11.2801
11.4225
11.5598
11.6931
11.8189
11.9499
12.0287
-6.70601
-6.71047
-6.71766
-6.72386
-6.7284
-6.73195
-6.73496
-6.73769
-6.74035
-6.74309
-6.74604
-6.74929
-6.75292
-6.75699
-6.76155
-6.76663
-6.77229
-6.77854
-6.78543
-6.793
-6.80126
-6.81026
-6.82001
-6.83056
-6.84192
-6.85412
-6.86719
-6.88114
-6.89599
-6.91175
-6.92843
-6.946
-6.96445
-6.98376
-7.00387
-7.02476
-7.04639
-7.06873
-7.09173
-7.11536
-7.13958
-7.16436
-7.18965
-7.21543
-7.24164
-7.26825
-7.29522
-7.3225
-7.35005
-7.37779
-7.40569
-7.43368
-7.46168
-7.48963
-7.51745
-7.54506
-7.57236
-7.59927
-7.62567
-7.65145
-7.67652
-7.70073
-7.72396
-7.74608
-7.76694
-7.7864
-7.80429
-7.82046
-7.83474
-7.84696
-7.85694
-7.8645
-7.86946
-7.87162
-7.87079
-7.86678
-7.8594
-7.84845
-7.83372
-7.81502
-7.79216
-7.76494
-7.73317
-7.69666
-7.65522
-7.60867
-7.55684
-7.49955
-7.43664
-7.36796
-7.29336
-7.21271
-7.12586
-7.03271
-6.93314
-6.82706
-6.71437
-6.59502
-6.46895
-6.3361
-6.19645
-6.04997
-5.89666
-5.7365
-5.56954
-5.39578
-5.2153
-5.02814
-4.83438
-4.63412
-4.42747
-4.21454
-3.99547
-3.7704
-3.53951
-3.30296
-3.06096
-2.8137
-2.5614
-2.30427
-2.04257
-1.77652
-1.50639
-1.23245
-0.954978
-0.674255
-0.390579
-0.104231
0.184475
0.475219
0.767689
1.0616
1.35666
1.65255
1.94891
2.24543
2.54181
2.83773
3.13288
3.42696
3.71969
4.01076
4.2999
4.58684
4.87132
5.15307
5.43187
5.70747
5.97966
6.24822
6.51296
6.77369
7.03024
7.28244
7.53015
7.77322
8.01153
8.24496
8.4734
8.69675
8.91493
9.12784
9.33541
9.53761
9.73441
9.92576
10.1116
10.292
10.4668
10.636
10.7997
10.9579
11.1107
11.258
11.4001
11.5368
11.6689
11.7923
11.9205
11.9906
-6.70574
-6.71055
-6.71823
-6.72496
-6.73004
-6.73412
-6.73764
-6.74086
-6.74398
-6.74717
-6.75054
-6.75421
-6.75825
-6.76272
-6.76767
-6.77314
-6.77918
-6.78583
-6.79311
-6.80105
-6.8097
-6.81906
-6.82918
-6.84007
-6.85175
-6.86426
-6.87759
-6.89177
-6.9068
-6.92269
-6.93944
-6.95704
-6.97547
-6.9947
-7.01472
-7.03549
-7.05698
-7.07916
-7.10201
-7.12548
-7.14954
-7.17416
-7.19931
-7.22494
-7.25102
-7.27751
-7.30437
-7.33156
-7.35902
-7.3867
-7.41455
-7.44251
-7.47051
-7.49848
-7.52634
-7.554
-7.58137
-7.60837
-7.63488
-7.66079
-7.68598
-7.71034
-7.73373
-7.75602
-7.77705
-7.79668
-7.81474
-7.83109
-7.84555
-7.85794
-7.86809
-7.87582
-7.88093
-7.88324
-7.88256
-7.87869
-7.87144
-7.8606
-7.84599
-7.82739
-7.80462
-7.77748
-7.74579
-7.70934
-7.66795
-7.62146
-7.56967
-7.51242
-7.44954
-7.38089
-7.30633
-7.2257
-7.13888
-7.04575
-6.94622
-6.84017
-6.72753
-6.60822
-6.48219
-6.3494
-6.2098
-6.06338
-5.91012
-5.75003
-5.58314
-5.40947
-5.22906
-5.042
-4.84834
-4.6482
-4.44166
-4.22886
-4.00993
-3.78501
-3.55427
-3.3179
-3.07606
-2.82898
-2.57686
-2.31993
-2.05842
-1.79257
-1.52264
-1.24891
-0.971635
-0.691122
-0.407645
-0.121508
0.16698
0.457503
0.749762
1.04347
1.33835
1.63404
1.93022
2.22656
2.52276
2.81851
3.1135
3.40743
3.70001
3.99096
4.27999
4.56682
4.85121
5.13289
5.41162
5.68717
5.95933
6.22787
6.4926
6.75334
7.00991
7.26215
7.50991
7.75305
7.99143
8.22495
8.45348
8.67694
8.89523
9.10825
9.31595
9.51828
9.7152
9.90667
10.0927
10.2731
10.448
10.6174
10.7812
10.9394
11.0921
11.2392
11.3809
11.5168
11.6475
11.7686
11.8943
11.9569
-6.7081
-6.71306
-6.72093
-6.72795
-6.73339
-6.73785
-6.74177
-6.74538
-6.74889
-6.75244
-6.75618
-6.7602
-6.76458
-6.76938
-6.77467
-6.78048
-6.78685
-6.79382
-6.80141
-6.80967
-6.81862
-6.82827
-6.83866
-6.84981
-6.86173
-6.87445
-6.88796
-6.90229
-6.91744
-6.93342
-6.95021
-6.96782
-6.98622
-7.0054
-7.02534
-7.04602
-7.06741
-7.08949
-7.11223
-7.1356
-7.15957
-7.18411
-7.20918
-7.23476
-7.26079
-7.28725
-7.31409
-7.34126
-7.36873
-7.39644
-7.42434
-7.45235
-7.48043
-7.50849
-7.53646
-7.56424
-7.59176
-7.6189
-7.64556
-7.67164
-7.69701
-7.72155
-7.74511
-7.76758
-7.78878
-7.80858
-7.82682
-7.84332
-7.85793
-7.87046
-7.88074
-7.88858
-7.89379
-7.89619
-7.89558
-7.89177
-7.88456
-7.87375
-7.85915
-7.84055
-7.81777
-7.7906
-7.75886
-7.72236
-7.68091
-7.63434
-7.58247
-7.52513
-7.46216
-7.39341
-7.31874
-7.238
-7.15108
-7.05785
-6.9582
-6.85206
-6.73932
-6.61992
-6.49381
-6.36093
-6.22125
-6.07476
-5.92144
-5.76129
-5.59435
-5.42064
-5.24021
-5.05313
-4.85948
-4.65934
-4.45282
-4.24005
-4.02116
-3.79631
-3.56564
-3.32934
-3.08761
-2.84063
-2.58863
-2.33182
-2.07043
-1.80472
-1.53494
-1.26136
-0.984254
-0.703903
-0.420594
-0.134637
0.15366
0.443995
0.736066
1.02959
1.32429
1.61979
1.91578
2.21194
2.50796
2.80353
3.09835
3.39212
3.68455
3.97535
4.26424
4.55095
4.83522
5.11679
5.39542
5.67089
5.94297
6.21145
6.47613
6.73684
6.99339
7.24562
7.49338
7.73653
7.97494
8.2085
8.43708
8.66059
8.87894
9.09204
9.29982
9.50223
9.69923
9.89078
10.0768
10.2574
10.4324
10.6018
10.7656
10.9238
11.0763
11.2232
11.3643
11.4993
11.6286
11.7475
11.8708
11.927
-6.71289
-6.71783
-6.72563
-6.7327
-6.73831
-6.74302
-6.7472
-6.75109
-6.75487
-6.7587
-6.76271
-6.76699
-6.77163
-6.77669
-6.78222
-6.78826
-6.79487
-6.80206
-6.80987
-6.81833
-6.82747
-6.83731
-6.84787
-6.85918
-6.87124
-6.88408
-6.8977
-6.91212
-6.92733
-6.94335
-6.96016
-6.97776
-6.99614
-7.01529
-7.03519
-7.05582
-7.07716
-7.09919
-7.12188
-7.14521
-7.16915
-7.19367
-7.21875
-7.24434
-7.2704
-7.2969
-7.3238
-7.35105
-7.37861
-7.40642
-7.43443
-7.46258
-7.4908
-7.51901
-7.54714
-7.5751
-7.60279
-7.63011
-7.65696
-7.68322
-7.70878
-7.73349
-7.75723
-7.77985
-7.80121
-7.82115
-7.83951
-7.85612
-7.87082
-7.88343
-7.89377
-7.90164
-7.90688
-7.90928
-7.90865
-7.9048
-7.89754
-7.88665
-7.87195
-7.85324
-7.83033
-7.80302
-7.77113
-7.73445
-7.69283
-7.64606
-7.59399
-7.53644
-7.47326
-7.40429
-7.3294
-7.24845
-7.16131
-7.06786
-6.96801
-6.86165
-6.74872
-6.62913
-6.50283
-6.36977
-6.22992
-6.08326
-5.92979
-5.76951
-5.60244
-5.42862
-5.24809
-5.06092
-4.8672
-4.66701
-4.46046
-4.24767
-4.02877
-3.80392
-3.57328
-3.33703
-3.09535
-2.84845
-2.59653
-2.33981
-2.07854
-1.81295
-1.5433
-1.26986
-0.992903
-0.71271
-0.429578
-0.143807
0.144294
0.434436
0.726307
1.01964
1.31414
1.60944
1.90522
2.20117
2.49699
2.79236
3.08698
3.38056
3.67281
3.96343
4.25214
4.53869
4.8228
5.10422
5.38272
5.65805
5.93001
6.19839
6.46298
6.72361
6.98009
7.23226
7.47998
7.72311
7.9615
8.19505
8.42363
8.64716
8.86552
9.07866
9.28648
9.48894
9.68598
9.87758
10.0637
10.2443
10.4193
10.5887
10.7524
10.9105
11.0629
11.2094
11.3499
11.4839
11.6119
11.7285
11.8498
11.9006
-6.71979
-6.72456
-6.73207
-6.73899
-6.7446
-6.74939
-6.75369
-6.75773
-6.76168
-6.76568
-6.76985
-6.77428
-6.77906
-6.78426
-6.78991
-6.79607
-6.80278
-6.81007
-6.81798
-6.82653
-6.83575
-6.84567
-6.85631
-6.86768
-6.8798
-6.8927
-6.90636
-6.92081
-6.93605
-6.95208
-6.96889
-6.98649
-7.00486
-7.02399
-7.04387
-7.06449
-7.08583
-7.10786
-7.13056
-7.15392
-7.1779
-7.20246
-7.22759
-7.25324
-7.27939
-7.306
-7.33302
-7.36041
-7.38812
-7.41609
-7.44427
-7.4726
-7.50099
-7.52939
-7.5577
-7.58585
-7.61372
-7.64122
-7.66825
-7.69467
-7.72038
-7.74523
-7.76909
-7.79182
-7.81327
-7.83328
-7.85169
-7.86833
-7.88303
-7.89562
-7.90592
-7.91373
-7.91888
-7.92117
-7.92041
-7.91641
-7.90896
-7.89788
-7.88297
-7.86404
-7.84088
-7.81332
-7.78115
-7.74419
-7.70228
-7.65521
-7.60284
-7.54498
-7.48149
-7.41221
-7.33701
-7.25575
-7.16831
-7.07456
-6.97442
-6.86778
-6.75457
-6.63472
-6.50817
-6.37487
-6.2348
-6.08793
-5.93426
-5.77379
-5.60656
-5.43259
-5.25193
-5.06465
-4.87083
-4.67056
-4.46396
-4.25113
-4.03222
-3.80737
-3.57676
-3.34055
-3.09894
-2.85211
-2.60029
-2.34368
-2.08253
-1.81708
-1.54759
-1.27432
-0.99754
-0.717538
-0.434613
-0.149058
0.138828
0.428742
0.72038
1.01349
1.30775
1.6028
1.89833
2.19403
2.48959
2.78472
3.0791
3.37244
3.66445
3.95484
4.24333
4.52966
4.81356
5.09479
5.37309
5.64825
5.92005
6.18827
6.45272
6.71321
6.96958
7.22166
7.46929
7.71234
7.95067
8.18417
8.41271
8.63621
8.85457
9.0677
9.27553
9.478
9.67507
9.86669
10.0528
10.2334
10.4084
10.5778
10.7415
10.8994
11.0515
11.1976
11.3374
11.4705
11.597
11.7117
11.8309
11.8773
-6.72838
-6.73289
-6.73995
-6.74654
-6.752
-6.75672
-6.76101
-6.76506
-6.76903
-6.77305
-6.77724
-6.7817
-6.78649
-6.79168
-6.79732
-6.80347
-6.81016
-6.81744
-6.82533
-6.83387
-6.84309
-6.85299
-6.86362
-6.87498
-6.8871
-6.89998
-6.91363
-6.92807
-6.9433
-6.95931
-6.97612
-6.99371
-7.01207
-7.03121
-7.05111
-7.07175
-7.09312
-7.11519
-7.13794
-7.16135
-7.1854
-7.21004
-7.23527
-7.26103
-7.28732
-7.31407
-7.34126
-7.36883
-7.39672
-7.42488
-7.45325
-7.48175
-7.51032
-7.53888
-7.56735
-7.59565
-7.62366
-7.65129
-7.67843
-7.70495
-7.73073
-7.75563
-7.77952
-7.80225
-7.82368
-7.84364
-7.86198
-7.87852
-7.8931
-7.90554
-7.91566
-7.92328
-7.9282
-7.93025
-7.92923
-7.92495
-7.9172
-7.90581
-7.89057
-7.87129
-7.84777
-7.81984
-7.7873
-7.74996
-7.70766
-7.66021
-7.60744
-7.5492
-7.48532
-7.41567
-7.34009
-7.25847
-7.17067
-7.07658
-6.97611
-6.86915
-6.75563
-6.63549
-6.50866
-6.3751
-6.23478
-6.0877
-5.93382
-5.77318
-5.60578
-5.43167
-5.25089
-5.06352
-4.86962
-4.6693
-4.46267
-4.24984
-4.03094
-3.80613
-3.57558
-3.33946
-3.09794
-2.85124
-2.59955
-2.3431
-2.08212
-1.81687
-1.54758
-1.27453
-0.997983
-0.718241
-0.435581
-0.150294
0.13732
0.426939
0.718288
1.01112
1.30507
1.59979
1.895
2.19038
2.48563
2.78045
3.07452
3.36756
3.65927
3.94937
4.23758
4.52363
4.80726
5.08822
5.36628
5.64121
5.91278
6.18079
6.44505
6.70536
6.96156
7.21349
7.46099
7.70391
7.94214
8.17555
8.40402
8.62746
8.84576
9.05886
9.26666
9.46912
9.66618
9.8578
10.0439
10.2245
10.3995
10.5688
10.7324
10.8901
11.0419
11.1875
11.3267
11.4587
11.5839
11.6967
11.8139
11.8567
-6.73829
-6.74245
-6.74894
-6.75509
-6.76025
-6.76475
-6.76886
-6.77276
-6.77659
-6.78048
-6.78453
-6.78885
-6.7935
-6.79855
-6.80406
-6.81008
-6.81665
-6.82381
-6.83159
-6.84002
-6.84913
-6.85894
-6.86948
-6.88077
-6.89281
-6.90563
-6.91923
-6.93363
-6.94882
-6.96482
-6.98161
-6.99921
-7.01758
-7.03673
-7.05664
-7.07731
-7.09871
-7.12082
-7.14363
-7.16711
-7.19124
-7.216
-7.24135
-7.26727
-7.29371
-7.32063
-7.34797
-7.3757
-7.40375
-7.43204
-7.46053
-7.48915
-7.51781
-7.54646
-7.57501
-7.60335
-7.6314
-7.65904
-7.68616
-7.71264
-7.73834
-7.76315
-7.78691
-7.80949
-7.83073
-7.85049
-7.86859
-7.88487
-7.89917
-7.9113
-7.92109
-7.92836
-7.93292
-7.93458
-7.93316
-7.92847
-7.9203
-7.90847
-7.89279
-7.87307
-7.84911
-7.82073
-7.78774
-7.74995
-7.7072
-7.65931
-7.60611
-7.54744
-7.48314
-7.41309
-7.33712
-7.25512
-7.16696
-7.07252
-6.97171
-6.86444
-6.75063
-6.63021
-6.50312
-6.36933
-6.2288
-6.08152
-5.92748
-5.76669
-5.59917
-5.42496
-5.24412
-5.0567
-4.86279
-4.66247
-4.45587
-4.2431
-4.02429
-3.79959
-3.56917
-3.3332
-3.09186
-2.84536
-2.59389
-2.33768
-2.07696
-1.81198
-1.54299
-1.27024
-0.994032
-0.714634
-0.432316
-0.147376
0.139865
0.429098
0.720087
1.01255
1.30609
1.6004
1.8952
2.19018
2.48504
2.77945
3.07314
3.36579
3.65713
3.94685
4.2347
4.5204
4.80369
5.08433
5.36207
5.63669
5.90798
6.17572
6.43972
6.69979
6.95578
7.2075
7.45481
7.69758
7.93566
8.16894
8.3973
8.62064
8.83886
9.05189
9.25965
9.46208
9.65911
9.8507
10.0368
10.2173
10.3923
10.5615
10.7249
10.8825
11.0339
11.1791
11.3175
11.4486
11.5724
11.6834
11.7988
11.8388
-6.74915
-6.75293
-6.75879
-6.76438
-6.7691
-6.77322
-6.77698
-6.78055
-6.78405
-6.78762
-6.79138
-6.7954
-6.79977
-6.80455
-6.80981
-6.81558
-6.82192
-6.82886
-6.83643
-6.84468
-6.85361
-6.86327
-6.87366
-6.88482
-6.89675
-6.90947
-6.92299
-6.93731
-6.95243
-6.96837
-6.98511
-7.00266
-7.02101
-7.04015
-7.06006
-7.08074
-7.10215
-7.1243
-7.14717
-7.17074
-7.19497
-7.21983
-7.24529
-7.2713
-7.29782
-7.32481
-7.35221
-7.37998
-7.40804
-7.43634
-7.46481
-7.49338
-7.52199
-7.55056
-7.579
-7.60722
-7.63511
-7.66257
-7.68948
-7.71571
-7.74115
-7.76566
-7.7891
-7.81133
-7.8322
-7.85156
-7.86925
-7.8851
-7.89894
-7.91061
-7.91993
-7.92671
-7.93078
-7.93194
-7.93002
-7.92481
-7.91614
-7.9038
-7.88761
-7.86738
-7.84291
-7.81403
-7.78055
-7.74229
-7.69908
-7.65073
-7.59709
-7.53799
-7.47329
-7.40284
-7.32651
-7.24415
-7.15566
-7.06091
-6.95981
-6.85227
-6.73821
-6.61757
-6.49029
-6.35633
-6.21566
-6.06827
-5.91414
-5.75329
-5.58575
-5.41153
-5.23071
-5.04335
-4.84952
-4.64931
-4.44285
-4.23024
-4.01162
-3.78714
-3.55697
-3.32126
-3.08022
-2.83403
-2.58289
-2.32704
-2.0667
-1.80211
-1.53353
-1.26122
-0.985459
-0.706499
-0.424631
-0.140163
0.14658
0.435326
0.725858
1.01783
1.31084
1.60463
1.89892
2.1934
2.48775
2.78167
3.07487
3.36704
3.6579
3.94717
4.23457
4.51983
4.80269
5.08292
5.36027
5.63452
5.90544
6.17285
6.43653
6.69631
6.95201
7.20348
7.45056
7.69312
7.93101
8.16412
8.39233
8.61554
8.83366
9.0466
9.25429
9.45665
9.65365
9.8452
10.0313
10.2118
10.3866
10.5558
10.7191
10.8764
11.0275
11.1721
11.3099
11.4399
11.5625
11.6719
11.7854
11.8233
-6.76115
-6.76454
-6.76977
-6.77472
-6.77884
-6.78238
-6.78556
-6.78856
-6.79151
-6.79456
-6.79781
-6.80136
-6.80528
-6.80964
-6.8145
-6.81991
-6.8259
-6.83253
-6.8398
-6.84777
-6.85644
-6.86586
-6.87602
-6.88696
-6.89869
-6.91122
-6.92456
-6.93873
-6.9537
-6.9695
-6.9861
-7.00353
-7.02176
-7.04081
-7.06065
-7.08127
-7.10265
-7.12477
-7.14761
-7.17114
-7.19533
-7.22013
-7.24551
-7.27142
-7.29782
-7.32467
-7.35191
-7.37948
-7.40733
-7.43539
-7.4636
-7.4919
-7.52022
-7.54848
-7.57659
-7.60444
-7.63194
-7.65897
-7.68542
-7.71117
-7.73611
-7.76009
-7.78299
-7.80467
-7.82497
-7.84375
-7.86086
-7.87611
-7.88937
-7.90044
-7.90916
-7.91535
-7.91882
-7.9194
-7.91689
-7.91111
-7.90187
-7.88899
-7.87226
-7.8515
-7.82653
-7.79716
-7.76321
-7.72449
-7.68084
-7.63208
-7.57805
-7.5186
-7.45356
-7.38279
-7.30616
-7.22353
-7.13478
-7.03981
-6.93851
-6.83081
-6.71662
-6.59587
-6.46851
-6.3345
-6.19381
-6.04643
-5.89235
-5.73158
-5.56413
-5.39006
-5.20941
-5.02224
-4.82863
-4.62869