/*--------------------------------*- C++ -*----------------------------------*\
| =========                 |                                                 |
| \\      /  F ield         | OpenFOAM: The Open Source CFD Toolbox           |
|  \\    /   O peration     | Version:  5.0                                   |
|   \\  /    A nd           | Web:      www.OpenFOAM.org                      |
|    \\/     M anipulation  |                                                 |
\*---------------------------------------------------------------------------*/
FoamFile
{
    version     2.0;
    format      ascii;
    class       surfaceScalarField;
    location    "287";
    object      phi;
}
// * * * * * * * * * * * * * * * * * * * * * * * * * * * * * * * * * * * * * //

dimensions      [0 3 -1 0 0 0 0];

internalField   nonuniform List<scalar> 
24170
(
3.12889e-06
5.95162e-08
3.04664e-06
8.22477e-08
2.97355e-06
7.30901e-08
2.90491e-06
6.86357e-08
2.8406e-06
6.43179e-08
2.78329e-06
5.73083e-08
2.73398e-06
4.93061e-08
2.69205e-06
4.19298e-08
2.6564e-06
3.56447e-08
2.626e-06
3.04076e-08
2.59985e-06
2.61475e-08
2.57713e-06
2.27226e-08
2.55717e-06
1.99514e-08
2.53942e-06
1.77511e-08
2.52354e-06
1.58837e-08
2.50849e-06
1.50519e-08
2.49499e-06
1.34979e-08
1.75959e-08
2.47739e-06
3.45314e-06
2.36248e-08
3.45702e-06
7.83666e-08
3.45055e-06
7.95578e-08
3.4391e-06
8.00872e-08
3.42432e-06
7.90917e-08
3.40708e-06
7.45533e-08
3.38787e-06
6.85141e-08
3.36736e-06
6.24418e-08
3.34623e-06
5.67745e-08
3.32507e-06
5.15677e-08
3.30436e-06
4.68523e-08
3.28439e-06
4.26935e-08
3.26535e-06
3.89913e-08
3.24729e-06
3.58133e-08
3.23028e-06
3.28909e-08
3.21432e-06
3.10071e-08
3.19972e-06
2.81046e-08
2.91456e-08
3.18816e-06
3.66826e-06
1.78795e-08
3.67919e-06
6.74389e-08
3.68543e-06
7.33215e-08
3.68947e-06
7.60412e-08
3.69107e-06
7.74877e-08
3.69012e-06
7.55107e-08
3.68699e-06
7.16399e-08
3.68216e-06
6.72688e-08
3.67603e-06
6.29079e-08
3.66891e-06
5.86838e-08
3.6611e-06
5.46703e-08
3.65282e-06
5.09635e-08
3.64429e-06
4.7528e-08
3.63565e-06
4.44468e-08
3.62698e-06
4.15603e-08
3.61869e-06
3.93053e-08
3.61014e-06
3.66467e-08
3.55907e-08
3.6037e-06
3.92587e-06
1.73936e-08
3.93592e-06
5.73892e-08
3.94258e-06
6.66676e-08
3.94812e-06
7.04936e-08
3.95254e-06
7.30659e-08
3.9555e-06
7.25529e-08
3.95718e-06
6.99586e-08
3.95783e-06
6.66205e-08
3.95763e-06
6.3103e-08
3.95674e-06
5.95744e-08
3.95529e-06
5.61211e-08
3.95341e-06
5.28504e-08
3.95117e-06
4.97587e-08
3.94871e-06
4.69157e-08
3.94603e-06
4.42334e-08
3.94342e-06
4.19156e-08
3.94055e-06
3.95135e-08
3.76297e-08
3.93851e-06
4.20819e-06
1.63259e-08
4.21599e-06
4.9595e-08
4.22169e-06
6.09644e-08
4.2268e-06
6.53842e-08
4.23156e-06
6.83101e-08
4.23554e-06
6.85718e-08
4.23872e-06
6.67787e-08
4.24121e-06
6.41288e-08
4.24312e-06
6.11935e-08
4.24453e-06
5.81581e-08
4.24554e-06
5.51172e-08
4.24621e-06
5.21758e-08
4.24661e-06
4.93557e-08
4.24682e-06
4.67086e-08
4.24686e-06
4.41908e-08
4.24689e-06
4.18864e-08
4.24681e-06
3.95954e-08
3.7441e-08
4.247e-06
4.51069e-06
1.47238e-08
4.51689e-06
4.3396e-08
4.52214e-06
5.57097e-08
4.52696e-06
6.05624e-08
4.53168e-06
6.35896e-08
4.53594e-06
6.4313e-08
4.53963e-06
6.30927e-08
4.5428e-06
6.09525e-08
4.54554e-06
5.84527e-08
4.54791e-06
5.57905e-08
4.54996e-06
5.30703e-08
4.55174e-06
5.039e-08
4.55331e-06
4.77888e-08
4.55472e-06
4.53039e-08
4.55599e-06
4.29172e-08
4.55722e-06
4.06542e-08
4.5584e-06
3.84192e-08
3.61933e-08
4.55964e-06
4.83431e-06
1.31356e-08
4.83963e-06
3.80716e-08
4.84476e-06
5.05796e-08
4.84947e-06
5.58531e-08
4.85411e-06
5.89485e-08
4.85844e-06
5.99853e-08
4.86233e-06
5.92079e-08
4.86581e-06
5.74723e-08
4.86894e-06
5.53194e-08
4.87177e-06
5.29579e-08
4.87434e-06
5.05e-08
4.87669e-06
4.80375e-08
4.87886e-06
4.56197e-08
4.88089e-06
4.32754e-08
4.88281e-06
4.09999e-08
4.88467e-06
3.8794e-08
4.88648e-06
3.66067e-08
3.43917e-08
4.88828e-06
5.18103e-06
1.16845e-08
5.18576e-06
3.33467e-08
5.19077e-06
4.55718e-08
5.19542e-06
5.11952e-08
5.20002e-06
5.43545e-08
5.20439e-06
5.56159e-08
5.20839e-06
5.51994e-08
5.21206e-06
5.38071e-08
5.21543e-06
5.19495e-08
5.21854e-06
4.98462e-08
5.22143e-06
4.76148e-08
5.22412e-06
4.53437e-08
5.22665e-06
4.30867e-08
5.22906e-06
4.08704e-08
5.23136e-06
3.8697e-08
5.23359e-06
3.65602e-08
5.23577e-06
3.44296e-08
3.22686e-08
5.23789e-06
5.55268e-06
1.03376e-08
5.55689e-06
2.91399e-08
5.5617e-06
4.07591e-08
5.56632e-06
4.65796e-08
5.57089e-06
4.9782e-08
5.57531e-06
5.1201e-08
5.57942e-06
5.10828e-08
5.58324e-06
4.99928e-08
5.58679e-06
4.83991e-08
5.5901e-06
4.65286e-08
5.59322e-06
4.45028e-08
5.59615e-06
4.2408e-08
5.59894e-06
4.03001e-08
5.6016e-06
3.82066e-08
5.60416e-06
3.61345e-08
5.60665e-06
3.40788e-08
5.60905e-06
3.20207e-08
2.9942e-08
5.61138e-06
5.95104e-06
9.07845e-09
5.95479e-06
2.53878e-08
5.95937e-06
3.61808e-08
5.96393e-06
4.20176e-08
5.96848e-06
4.52272e-08
5.97294e-06
4.67472e-08
5.97715e-06
4.68687e-08
5.9811e-06
4.60446e-08
5.98481e-06
4.46907e-08
5.9883e-06
4.30354e-08
5.9916e-06
4.12022e-08
5.99473e-06
3.92759e-08
5.99772e-06
3.7313e-08
6.00058e-06
3.53432e-08
6.00334e-06
3.33778e-08
6.006e-06
3.14165e-08
6.00857e-06
2.94491e-08
2.74739e-08
6.01104e-06
6.37798e-06
7.90875e-09
6.38135e-06
2.20226e-08
6.38568e-06
3.18476e-08
6.39017e-06
3.75258e-08
6.3947e-06
4.06959e-08
6.39918e-06
4.22668e-08
6.40348e-06
4.25698e-08
6.40755e-06
4.19735e-08
6.41141e-06
4.08368e-08
6.41506e-06
3.93817e-08
6.41853e-06
3.77322e-08
6.42183e-06
3.59705e-08
6.42499e-06
3.4153e-08
6.42803e-06
3.23119e-08
6.43094e-06
3.04626e-08
6.43375e-06
2.861e-08
6.43644e-06
2.67514e-08
2.48969e-08
6.43902e-06
5.74176e-06
6.98284e-09
5.74434e-06
1.94387e-08
5.74782e-06
2.83748e-08
5.75155e-06
3.37933e-08
5.75536e-06
3.6888e-08
5.75915e-06
3.84686e-08
5.76284e-06
3.88808e-08
5.76637e-06
3.84452e-08
5.76973e-06
3.74747e-08
5.77294e-06
3.61782e-08
5.77599e-06
3.46777e-08
5.77891e-06
3.30535e-08
5.7817e-06
3.13611e-08
5.78438e-06
2.96345e-08
5.78695e-06
2.78919e-08
5.78941e-06
2.61427e-08
5.79178e-06
2.43886e-08
2.26486e-08
5.79403e-06
6.99914e-06
5.99922e-09
7.00187e-06
1.67046e-08
7.00564e-06
2.4607e-08
7.00981e-06
2.96216e-08
7.01414e-06
3.25623e-08
7.0185e-06
3.41082e-08
7.02278e-06
3.46006e-08
7.02691e-06
3.43138e-08
7.03087e-06
3.35114e-08
7.03467e-06
3.23835e-08
7.0383e-06
3.10471e-08
7.04177e-06
2.95792e-08
7.0451e-06
2.80335e-08
7.04829e-06
2.6445e-08
7.05134e-06
2.4835e-08
7.05427e-06
2.32167e-08
7.05706e-06
2.15961e-08
1.9998e-08
7.05971e-06
8.53188e-06
4.96568e-09
8.53474e-06
1.38476e-08
8.53877e-06
2.05719e-08
8.54338e-06
2.50182e-08
8.54824e-06
2.77008e-08
8.5532e-06
2.9149e-08
8.55812e-06
2.9676e-08
8.56292e-06
2.95123e-08
8.56756e-06
2.88712e-08
8.57203e-06
2.79173e-08
8.57632e-06
2.67586e-08
8.58043e-06
2.54667e-08
8.58437e-06
2.40922e-08
8.58814e-06
2.267e-08
8.59176e-06
2.12232e-08
8.5952e-06
1.97683e-08
8.59849e-06
1.83143e-08
1.68891e-08
8.60159e-06
1.04003e-05
3.89155e-09
1.04033e-05
1.08873e-08
1.04075e-05
1.62921e-08
1.04126e-05
1.99926e-08
1.0418e-05
2.2288e-08
1.04236e-05
2.35553e-08
1.04292e-05
2.40546e-08
1.04347e-05
2.39733e-08
1.04401e-05
2.34758e-08
1.04453e-05
2.26952e-08
1.04504e-05
2.17249e-08
1.04552e-05
2.06287e-08
1.04599e-05
1.9452e-08
1.04643e-05
1.82277e-08
1.04685e-05
1.69792e-08
1.04726e-05
1.57241e-08
1.04764e-05
1.44731e-08
1.32546e-08
1.04801e-05
1.26779e-05
2.78185e-09
1.2681e-05
7.81858e-09
1.26855e-05
1.17663e-08
1.26909e-05
1.45399e-08
1.26969e-05
1.6298e-08
1.27032e-05
1.72796e-08
1.27096e-05
1.76745e-08
1.27159e-05
1.76218e-08
1.27222e-05
1.72392e-08
1.27282e-05
1.66245e-08
1.27341e-05
1.58506e-08
1.27398e-05
1.49693e-08
1.27452e-05
1.40184e-08
1.27504e-05
1.3026e-08
1.27554e-05
1.20134e-08
1.27601e-05
1.09971e-08
1.27646e-05
9.98753e-09
9.01127e-09
1.27688e-05
1.54543e-05
1.62601e-09
1.54576e-05
4.59574e-09
1.54624e-05
6.93804e-09
1.54683e-05
8.60154e-09
1.5475e-05
9.65854e-09
1.5482e-05
1.0234e-08
1.54892e-05
1.04373e-08
1.54965e-05
1.03525e-08
1.55037e-05
1.00501e-08
1.55107e-05
9.59006e-09
1.55176e-05
9.01939e-09
1.55242e-05
8.37305e-09
1.55305e-05
7.67746e-09
1.55366e-05
6.95312e-09
1.55424e-05
6.21609e-09
1.55479e-05
5.47952e-09
1.55531e-05
4.75149e-09
4.05473e-09
1.55581e-05
1.88389e-05
3.84227e-10
1.88424e-05
1.095e-09
1.88477e-05
1.63446e-09
1.88543e-05
1.98787e-09
1.88618e-05
2.17345e-09
1.88698e-05
2.21886e-09
1.88781e-05
2.14597e-09
1.88865e-05
1.97461e-09
1.88948e-05
1.72505e-09
1.8903e-05
1.41584e-09
1.89109e-05
1.06252e-09
1.89186e-05
6.78096e-10
1.8926e-05
2.73705e-10
1.89331e-05
-1.41067e-10
1.89399e-05
-5.58064e-10
1.89463e-05
-9.69912e-10
1.89525e-05
-1.37242e-09
-1.7485e-09
1.89583e-05
2.29648e-05
-1.04438e-09
2.29688e-05
-2.97211e-09
2.2975e-05
-4.56318e-09
2.29828e-05
-5.77651e-09
2.29916e-05
-6.6342e-09
2.3001e-05
-7.22263e-09
2.30108e-05
-7.62911e-09
2.30207e-05
-7.90823e-09
2.30305e-05
-8.09656e-09
2.30402e-05
-8.22522e-09
2.30495e-05
-8.31777e-09
2.30586e-05
-8.38857e-09
2.30673e-05
-8.4454e-09
2.30757e-05
-8.49246e-09
2.30837e-05
-8.53176e-09
2.30912e-05
-8.5634e-09
2.30985e-05
-8.58814e-09
-8.59564e-09
2.31053e-05
1.68118e-05
-2.16557e-09
1.6815e-05
-6.13859e-09
1.68198e-05
-9.38697e-09
1.68258e-05
-1.17659e-08
1.68325e-05
-1.3336e-08
1.68396e-05
-1.43251e-08
1.68469e-05
-1.49209e-08
1.68542e-05
-1.5227e-08
1.68614e-05
-1.53226e-08
1.68685e-05
-1.52793e-08
1.68753e-05
-1.515e-08
1.68819e-05
-1.49674e-08
1.68882e-05
-1.47522e-08
1.68942e-05
-1.45182e-08
1.69e-05
-1.42741e-08
1.69054e-05
-1.40246e-08
1.69106e-05
-1.37731e-08
-1.35134e-08
1.69155e-05
1.46356e-05
-3.24227e-09
1.46387e-05
-9.22092e-09
1.46434e-05
-1.40957e-08
1.46492e-05
-1.75022e-08
1.46554e-05
-1.96136e-08
1.4662e-05
-2.08798e-08
1.46687e-05
-2.15711e-08
1.46753e-05
-2.18236e-08
1.46817e-05
-2.1768e-08
1.46879e-05
-2.1521e-08
1.46939e-05
-2.11579e-08
1.46997e-05
-2.07237e-08
1.47052e-05
-2.02483e-08
1.47104e-05
-1.97529e-08
1.47154e-05
-1.92508e-08
1.47201e-05
-1.87496e-08
1.47246e-05
-1.82543e-08
-1.77611e-08
1.47289e-05
1.27411e-05
-4.2504e-09
1.27443e-05
-1.23438e-08
1.27491e-05
-1.89213e-08
1.27547e-05
-2.31419e-08
1.27607e-05
-2.55861e-08
1.27668e-05
-2.70287e-08
1.2773e-05
-2.77323e-08
1.2779e-05
-2.78465e-08
1.27848e-05
-2.75784e-08
1.27904e-05
-2.70931e-08
1.27957e-05
-2.64804e-08
1.28008e-05
-2.57916e-08
1.28056e-05
-2.50638e-08
1.28102e-05
-2.43227e-08
1.28145e-05
-2.35838e-08
1.28186e-05
-2.28553e-08
1.28225e-05
-2.21424e-08
-2.14422e-08
1.28262e-05
1.10918e-05
-5.09135e-09
1.1095e-05
-1.55617e-08
1.11001e-05
-2.40439e-08
1.11057e-05
-2.87613e-08
1.11115e-05
-3.13144e-08
1.11173e-05
-3.28335e-08
1.1123e-05
-3.34502e-08
1.11285e-05
-3.33467e-08
1.11337e-05
-3.28251e-08
1.11387e-05
-3.2083e-08
1.11434e-05
-3.12121e-08
1.11479e-05
-3.02688e-08
1.11522e-05
-2.92965e-08
1.11562e-05
-2.83235e-08
1.11599e-05
-2.73654e-08
1.11635e-05
-2.64301e-08
1.11669e-05
-2.55218e-08
-2.46383e-08
1.11701e-05
9.65581e-06
-5.69002e-09
9.65924e-06
-1.89873e-08
9.66458e-06
-2.93868e-08
9.67007e-06
-3.42539e-08
9.67563e-06
-3.68656e-08
9.68118e-06
-3.8384e-08
9.6865e-06
-3.87729e-08
9.69151e-06
-3.83633e-08
9.69625e-06
-3.75579e-08
9.70071e-06
-3.65507e-08
9.70492e-06
-3.54207e-08
9.70888e-06
-3.42272e-08
9.7126e-06
-3.3018e-08
9.7161e-06
-3.18224e-08
9.71939e-06
-3.06556e-08
9.72249e-06
-2.95247e-08
9.7254e-06
-2.84321e-08
-2.73739e-08
9.72813e-06
8.4053e-06
-5.63569e-09
8.40963e-06
-2.33227e-08
8.41487e-06
-3.46213e-08
8.41989e-06
-3.92767e-08
8.42525e-06
-4.22242e-08
8.43065e-06
-4.37834e-08
8.43572e-06
-4.38488e-08
8.44042e-06
-4.3059e-08
8.44478e-06
-4.19161e-08
8.44882e-06
-4.05962e-08
8.45257e-06
-3.9169e-08
8.45604e-06
-3.7697e-08
8.45925e-06
-3.62295e-08
8.46222e-06
-3.47945e-08
8.46497e-06
-3.34071e-08
8.46752e-06
-3.20735e-08
8.46989e-06
-3.07956e-08
-2.95702e-08
8.47208e-06
7.3145e-06
-2.85211e-09
7.32119e-06
-3.00108e-08
7.32674e-06
-4.01722e-08
7.33168e-06
-4.42207e-08
7.33707e-06
-4.76151e-08
7.34239e-06
-4.90965e-08
7.34725e-06
-4.87179e-08
7.35166e-06
-4.74627e-08
7.35563e-06
-4.58845e-08
7.35917e-06
-4.41417e-08
7.36232e-06
-4.23152e-08
7.3651e-06
-4.04776e-08
7.36755e-06
-3.86814e-08
7.36971e-06
-3.69509e-08
7.3716e-06
-3.53011e-08
7.37326e-06
-3.37353e-08
7.37472e-06
-3.22535e-08
-3.08463e-08
7.376e-06
6.36243e-06
4.78077e-09
6.37189e-06
-3.94729e-08
6.37932e-06
-4.7595e-08
6.38595e-06
-5.08541e-08
6.39223e-06
-5.38915e-08
6.39753e-06
-5.44034e-08
6.40182e-06
-5.30052e-08
6.40529e-06
-5.09355e-08
6.40808e-06
-4.86765e-08
6.41026e-06
-4.63178e-08
6.41188e-06
-4.39388e-08
6.41302e-06
-4.16159e-08
6.41374e-06
-3.93995e-08
6.4141e-06
-3.73086e-08
6.41415e-06
-3.53554e-08
6.41395e-06
-3.3538e-08
6.41356e-06
-3.18568e-08
-3.02905e-08
6.413e-06
5.54129e-06
8.95215e-09
5.55032e-06
-4.8502e-08
5.55833e-06
-5.56067e-08
5.56604e-06
-5.85578e-08
5.57249e-06
-6.03485e-08
5.57681e-06
-5.8724e-08
5.57905e-06
-5.52408e-08
5.5796e-06
-5.14887e-08
5.57884e-06
-4.79167e-08
5.57705e-06
-4.45254e-08
5.57445e-06
-4.1338e-08
5.57123e-06
-3.8395e-08
5.56753e-06
-3.57045e-08
5.56348e-06
-3.32605e-08
5.55918e-06
-3.10548e-08
5.55472e-06
-2.90763e-08
5.55019e-06
-2.73253e-08
-2.57485e-08
5.54565e-06
4.86019e-06
-2.3631e-08
4.86538e-06
-5.36933e-08
4.86523e-06
-5.5457e-08
4.86216e-06
-5.54932e-08
4.85699e-06
-5.51737e-08
4.84948e-06
-5.1218e-08
4.83979e-06
-4.55437e-08
4.82839e-06
-4.00907e-08
4.8158e-06
-3.53337e-08
4.80252e-06
-3.12408e-08
4.78891e-06
-2.7733e-08
4.77527e-06
-2.47505e-08
4.76178e-06
-2.2213e-08
4.74857e-06
-2.00552e-08
4.73574e-06
-1.82211e-08
4.72335e-06
-1.6687e-08
4.71151e-06
-1.54895e-08
-1.51396e-08
4.7009e-06
4.17905e-06
4.12535e-06
4.06989e-06
4.0144e-06
3.95923e-06
3.90801e-06
3.86247e-06
3.82238e-06
3.78704e-06
3.7558e-06
3.72807e-06
3.70332e-06
3.6811e-06
3.66105e-06
3.64283e-06
3.62614e-06
3.61065e-06
3.59551e-06
1.08833e-08
-1.08758e-08
2.42475e-08
-1.33583e-08
3.40736e-08
-9.81363e-09
3.88402e-08
-4.76289e-09
3.84186e-08
4.34812e-10
3.33601e-08
5.06151e-09
2.46074e-08
8.76809e-09
1.30481e-08
1.15607e-08
-5.5094e-10
1.36159e-08
-1.57534e-08
1.5201e-08
-3.22422e-08
1.65047e-08
-4.98652e-08
1.76193e-08
-6.84842e-08
1.86345e-08
-8.80806e-08
1.95924e-08
-1.08577e-07
2.05124e-08
-1.29978e-07
2.13988e-08
-1.52212e-07
2.22532e-08
-1.75287e-07
2.30733e-08
-1.99124e-07
2.38602e-08
-2.23734e-07
2.46116e-08
-2.4904e-07
2.5331e-08
-2.75052e-07
2.60172e-08
-3.01695e-07
2.66771e-08
-3.28989e-07
2.73139e-08
-3.569e-07
2.79474e-08
-3.85448e-07
2.86056e-08
-4.14735e-07
2.93324e-08
-4.44782e-07
3.0158e-08
-4.75844e-07
3.11156e-08
-5.08052e-07
3.23521e-08
-5.4031e-07
3.22866e-08
-5.7039e-07
3.01951e-08
-6.00509e-07
3.01091e-08
-6.33022e-07
3.25405e-08
-6.6866e-07
3.55692e-08
-7.12902e-07
4.41708e-08
-7.58331e-07
4.53099e-08
-7.96094e-07
3.76315e-08
-8.3678e-07
4.05853e-08
-8.80465e-07
4.35744e-08
-9.27204e-07
4.66799e-08
-9.73536e-07
4.62653e-08
-1.01499e-06
4.14291e-08
-1.05587e-06
4.08408e-08
-1.09927e-06
4.33998e-08
-1.14303e-06
4.37358e-08
-1.18695e-06
4.39183e-08
-1.23097e-06
4.39986e-08
-1.27498e-06
4.40073e-08
-1.31893e-06
4.39325e-08
-1.36273e-06
4.37979e-08
-1.40636e-06
4.36142e-08
-1.44977e-06
4.33977e-08
-1.49294e-06
4.31537e-08
-1.53583e-06
4.28893e-08
-1.57845e-06
4.26049e-08
-1.62076e-06
4.23032e-08
-1.66276e-06
4.19826e-08
-1.7044e-06
4.16435e-08
-1.7457e-06
4.12831e-08
-1.7866e-06
4.09009e-08
-1.8271e-06
4.04942e-08
-1.86717e-06
4.00617e-08
-1.90678e-06
3.96005e-08
-1.94589e-06
3.91096e-08
-1.98448e-06
3.85863e-08
-2.02251e-06
3.80294e-08
-2.05996e-06
3.7437e-08
-2.09677e-06
3.6808e-08
-2.13292e-06
3.61407e-08
-2.16835e-06
3.54343e-08
-2.20305e-06
3.46876e-08
-2.23695e-06
3.39e-08
-2.27003e-06
3.30706e-08
-2.30223e-06
3.21992e-08
-2.33352e-06
3.12853e-08
-2.36385e-06
3.0329e-08
-2.39319e-06
2.93303e-08
-2.42148e-06
2.82894e-08
-2.4487e-06
2.72064e-08
-2.47478e-06
2.60817e-08
-2.4997e-06
2.49158e-08
-2.52342e-06
2.37092e-08
-2.54589e-06
2.24621e-08
-2.56706e-06
2.11751e-08
-2.58692e-06
1.98484e-08
-2.6054e-06
1.84826e-08
-2.62248e-06
1.70771e-08
-2.63812e-06
1.5631e-08
-2.65226e-06
1.41417e-08
-2.66486e-06
1.26042e-08
-2.67588e-06
1.10138e-08
-2.68524e-06
9.36453e-09
-2.69289e-06
7.64886e-09
-2.69875e-06
5.85302e-09
-2.70271e-06
3.95867e-09
-2.70468e-06
1.96418e-09
-2.70463e-06
-4.97199e-11
-2.70276e-06
-1.87243e-09
-2.69926e-06
-3.50053e-09
-2.69418e-06
-5.08873e-09
-2.68752e-06
-6.6657e-09
-2.67929e-06
-8.24513e-09
-2.66947e-06
-9.82914e-09
-2.65807e-06
-1.14166e-08
-2.64507e-06
-1.30068e-08
-2.63049e-06
-1.45968e-08
-2.61432e-06
-1.61862e-08
-2.59656e-06
-1.77719e-08
-2.57722e-06
-1.93535e-08
-2.5563e-06
-2.0928e-08
-2.53382e-06
-2.2495e-08
-2.50977e-06
-2.40513e-08
-2.48419e-06
-2.55966e-08
-2.45706e-06
-2.71275e-08
-2.42843e-06
-2.86438e-08
-2.39829e-06
-3.0142e-08
-2.36667e-06
-3.16217e-08
-2.33359e-06
-3.30795e-08
-2.29907e-06
-3.45161e-08
-2.26314e-06
-3.5929e-08
-2.22583e-06
-3.73177e-08
-2.18716e-06
-3.86778e-08
-2.14716e-06
-4.00084e-08
-2.10586e-06
-4.13048e-08
-2.0633e-06
-4.25684e-08
-2.0195e-06
-4.37962e-08
-1.9745e-06
-4.49906e-08
-1.92834e-06
-4.61472e-08
-1.88106e-06
-4.7268e-08
-1.83269e-06
-4.83507e-08
-1.78328e-06
-4.93927e-08
-1.73286e-06
-5.03855e-08
-1.68149e-06
-5.13364e-08
-1.6292e-06
-5.22453e-08
-1.57605e-06
-5.31095e-08
-1.52208e-06
-5.39247e-08
-1.46733e-06
-5.46926e-08
-1.41186e-06
-5.54122e-08
-1.35572e-06
-5.60841e-08
-1.29896e-06
-5.67079e-08
-1.24163e-06
-5.72831e-08
-1.18377e-06
-5.78102e-08
-1.12544e-06
-5.82884e-08
-1.06668e-06
-5.87187e-08
-1.00754e-06
-5.91e-08
-9.48078e-07
-5.9434e-08
-8.88332e-07
-5.97199e-08
-8.28352e-07
-5.996e-08
-7.68183e-07
-6.01534e-08
-7.07872e-07
-6.0303e-08
-6.47461e-07
-6.04081e-08
-5.86992e-07
-6.04717e-08
-5.26508e-07
-6.04933e-08
-4.66047e-07
-6.04756e-08
-4.05649e-07
-6.04183e-08
-3.45352e-07
-6.03238e-08
-2.85192e-07
-6.01909e-08
-2.25207e-07
-6.00218e-08
-1.65432e-07
-5.98153e-08
-1.05897e-07
-5.95802e-08
-4.66498e-08
-5.9296e-08
1.22262e-08
-5.89288e-08
7.07634e-08
-5.85907e-08
1.28947e-07
-5.82388e-08
1.86682e-07
-5.7791e-08
2.43973e-07
-5.73487e-08
3.00829e-07
-5.6914e-08
3.57251e-07
-5.64813e-08
4.13229e-07
-5.60379e-08
4.68735e-07
-5.55679e-08
5.23718e-07
-5.50454e-08
5.78084e-07
-5.44283e-08
6.31659e-07
-5.36402e-08
6.84132e-07
-5.25371e-08
7.34884e-07
-5.08173e-08
7.82603e-07
-4.77838e-08
8.24123e-07
-4.15832e-08
8.51313e-07
-2.72484e-08
1.78948e-08
8.33366e-07
9.11205e-09
-1.9983e-08
1.25432e-08
-1.67856e-08
1.12332e-08
-8.49793e-09
6.69549e-09
-2.22825e-10
-3.71506e-10
7.5072e-09
-9.75549e-09
1.44476e-08
-2.14148e-08
2.04333e-08
-3.52759e-08
2.54234e-08
-5.11657e-08
2.95116e-08
-6.88413e-08
3.2877e-08
-8.80471e-08
3.57162e-08
-1.08626e-07
3.81972e-08
-1.30432e-07
4.04464e-08
-1.53387e-07
4.25467e-08
-1.77416e-07
4.45485e-08
-2.02497e-07
4.64805e-08
-2.28596e-07
4.83602e-08
-2.5572e-07
5.01993e-08
-2.83857e-07
5.20083e-08
-3.1304e-07
5.37975e-08
-3.43277e-07
5.55803e-08
-3.74625e-07
5.73696e-08
-4.07116e-07
5.91819e-08
-4.40824e-07
6.10344e-08
-4.75805e-07
6.29466e-08
-5.12117e-07
6.49462e-08
-5.49808e-07
6.70521e-08
-5.88827e-07
6.924e-08
-6.291e-07
7.14297e-08
-6.70108e-07
7.34423e-08
-7.12578e-07
7.47917e-08
-7.57912e-07
7.5591e-08
-8.04982e-07
7.71796e-08
-8.52166e-07
7.97278e-08
-8.99247e-07
8.26051e-08
-9.40929e-07
8.57993e-08
-9.82532e-07
8.68446e-08
-1.03064e-06
8.56716e-08
-1.07601e-06
8.58998e-08
-1.1192e-06
8.67079e-08
-1.16004e-06
8.74878e-08
-1.20094e-06
8.71337e-08
-1.24514e-06
8.56056e-08
-1.28924e-06
8.49283e-08
-1.33089e-06
8.50472e-08
-1.37198e-06
8.48166e-08
-1.41251e-06
8.4443e-08
-1.45253e-06
8.40084e-08
-1.49207e-06
8.35358e-08
-1.53117e-06
8.3027e-08
-1.56986e-06
8.24837e-08
-1.60816e-06
8.19075e-08
-1.64607e-06
8.13021e-08
-1.6836e-06
8.0669e-08
-1.72072e-06
8.00089e-08
-1.75745e-06
7.9321e-08
-1.79375e-06
7.86036e-08
-1.82963e-06
7.7854e-08
-1.86506e-06
7.7069e-08
-1.90003e-06
7.62451e-08
-1.93451e-06
7.53789e-08
-1.96848e-06
7.44663e-08
-2.00193e-06
7.3504e-08
-2.03482e-06
7.24883e-08
-2.06713e-06
7.14157e-08
-2.09883e-06
7.02832e-08
-2.12989e-06
6.90879e-08
-2.16029e-06
6.78272e-08
-2.18998e-06
6.64988e-08
-2.21894e-06
6.51006e-08
-2.24714e-06
6.3631e-08
-2.27455e-06
6.20884e-08
-2.30112e-06
6.04718e-08
-2.32683e-06
5.87801e-08
-2.35165e-06
5.70129e-08
-2.37554e-06
5.51698e-08
-2.39846e-06
5.32509e-08
-2.42039e-06
5.12563e-08
-2.44129e-06
4.91866e-08
-2.46113e-06
4.70421e-08
-2.47988e-06
4.48237e-08
-2.4975e-06
4.25324e-08
-2.51396e-06
4.0169e-08
-2.52924e-06
3.77346e-08
-2.54329e-06
3.52303e-08
-2.55611e-06
3.26573e-08
-2.56764e-06
3.00169e-08
-2.57788e-06
2.73099e-08
-2.58678e-06
2.45372e-08
-2.59434e-06
2.16982e-08
-2.60053e-06
1.87928e-08
-2.60534e-06
1.58219e-08
-2.60876e-06
1.27877e-08
-2.61081e-06
9.69398e-09
-2.61151e-06
6.54699e-09
-2.61091e-06
3.36516e-09
-2.60914e-06
1.8964e-10
-2.60626e-06
-2.9301e-09
-2.60213e-06
-6.01184e-09
-2.59653e-06
-9.10157e-09
-2.58942e-06
-1.22042e-08
-2.58077e-06
-1.53186e-08
-2.57058e-06
-1.84466e-08
-2.55883e-06
-2.15861e-08
-2.54552e-06
-2.47343e-08
-2.53065e-06
-2.78874e-08
-2.51422e-06
-3.10419e-08
-2.49622e-06
-3.41941e-08
-2.47666e-06
-3.73404e-08
-2.45554e-06
-4.04776e-08
-2.43287e-06
-4.36019e-08
-2.40867e-06
-4.671e-08
-2.38292e-06
-4.97982e-08
-2.35566e-06
-5.28631e-08
-2.32689e-06
-5.59009e-08
-2.29663e-06
-5.89084e-08
-2.2649e-06
-6.18815e-08
-2.2317e-06
-6.48164e-08
-2.19707e-06
-6.77099e-08
-2.16103e-06
-7.05596e-08
-2.1236e-06
-7.33627e-08
-2.0848e-06
-7.61157e-08
-2.04468e-06
-7.88133e-08
-2.00324e-06
-8.14511e-08
-1.96052e-06
-8.40241e-08
-1.91656e-06
-8.65303e-08
-1.87139e-06
-8.89669e-08
-1.82505e-06
-9.13339e-08
-1.77756e-06
-9.36285e-08
-1.72897e-06
-9.58507e-08
-1.67931e-06
-9.79974e-08
-1.62863e-06
-1.00061e-07
-1.57696e-06
-1.02032e-07
-1.52436e-06
-1.03918e-07
-1.47087e-06
-1.05719e-07
-1.41652e-06
-1.07431e-07
-1.36137e-06
-1.09046e-07
-1.30547e-06
-1.10567e-07
-1.24886e-06
-1.11991e-07
-1.19159e-06
-1.13319e-07
-1.13372e-06
-1.1455e-07
-1.07529e-06
-1.15684e-07
-1.01636e-06
-1.16721e-07
-9.56963e-07
-1.17661e-07
-8.97157e-07
-1.18504e-07
-8.3699e-07
-1.1925e-07
-7.76509e-07
-1.19899e-07
-7.15763e-07
-1.20455e-07
-6.54797e-07
-1.20916e-07
-5.93659e-07
-1.21286e-07
-5.32393e-07
-1.21565e-07
-4.71043e-07
-1.21758e-07
-4.09652e-07
-1.21865e-07
-3.48261e-07
-1.2189e-07
-2.8691e-07
-1.21834e-07
-2.25638e-07
-1.21702e-07
-1.64481e-07
-1.21493e-07
-1.03477e-07
-1.21212e-07
-4.26578e-08
-1.20859e-07
1.79479e-08
-1.20442e-07
7.83124e-08
-1.19966e-07
1.38415e-07
-1.19423e-07
1.98249e-07
-1.18787e-07
2.57706e-07
-1.18074e-07
3.16732e-07
-1.17291e-07
3.75368e-07
-1.16455e-07
4.33608e-07
-1.15617e-07
4.91446e-07
-1.14783e-07
5.48875e-07
-1.13941e-07
6.05876e-07
-1.13072e-07
6.62419e-07
-1.12144e-07
7.18447e-07
-1.11109e-07
7.73864e-07
-1.0988e-07
8.28499e-07
-1.08313e-07
8.8205e-07
-1.06125e-07
9.33976e-07
-1.02782e-07
9.83214e-07
-9.70603e-08
1.02809e-06
-8.64946e-08
1.06524e-06
-6.44353e-08
-1.20112e-08
1.09511e-06
6.51915e-10
-2.06317e-08
-4.8847e-09
-1.12465e-08
-1.31578e-08
-2.21673e-10
-2.31603e-08
9.78068e-09
-3.45346e-08
1.88841e-08
-4.72146e-08
2.71285e-08
-6.12666e-08
3.44879e-08
-7.67937e-08
4.09511e-08
-9.38482e-08
4.65689e-08
-1.12424e-07
5.14524e-08
-1.3245e-07
5.57455e-08
-1.53848e-07
5.95937e-08
-1.76521e-07
6.31225e-08
-2.00403e-07
6.64285e-08
-2.25432e-07
6.95814e-08
-2.51581e-07
7.26291e-08
-2.78821e-07
7.56053e-08
-3.07156e-07
7.85348e-08
-3.3658e-07
8.14385e-08
-3.67116e-07
8.4335e-08
-3.98772e-07
8.72424e-08
-4.3158e-07
9.01778e-08
-4.65549e-07
9.31563e-08
-5.007e-07
9.61878e-08
-5.3702e-07
9.92734e-08
-5.74457e-07
1.02396e-07
-6.12905e-07
1.05513e-07
-6.52178e-07
1.08548e-07
-6.92107e-07
1.11382e-07
-7.32488e-07
1.13872e-07
-7.73549e-07
1.15872e-07
-8.15396e-07
1.17471e-07
-8.57354e-07
1.19135e-07
-8.98594e-07
1.20963e-07
-9.3866e-07
1.22643e-07
-9.76999e-07
1.24105e-07
-1.01504e-06
1.24849e-07
-1.05417e-06
1.24767e-07
-1.09287e-06
1.24572e-07
-1.13067e-06
1.24476e-07
-1.16742e-06
1.24229e-07
-1.20387e-06
1.23562e-07
-1.2409e-06
1.22635e-07
-1.27787e-06
1.21884e-07
-1.31409e-06
1.21262e-07
-1.34984e-06
1.20558e-07
-1.38521e-06
1.19807e-07
-1.42023e-06
1.19031e-07
-1.45494e-06
1.18239e-07
-1.48935e-06
1.17429e-07
-1.52347e-06
1.16598e-07
-1.55731e-06
1.15742e-07
-1.59087e-06
1.14859e-07
-1.62415e-06
1.13945e-07
-1.65714e-06
1.12996e-07
-1.68983e-06
1.12008e-07
-1.72221e-06
1.10978e-07
-1.75426e-06
1.09899e-07
-1.78596e-06
1.08768e-07
-1.8173e-06
1.07578e-07
-1.84824e-06
1.06324e-07
-1.87878e-06
1.05e-07
-1.90888e-06
1.03603e-07
-1.93852e-06
1.02126e-07
-1.96768e-06
1.00566e-07
-1.99631e-06
9.89167e-08
-2.0244e-06
9.71758e-08
-2.05192e-06
9.53393e-08
-2.07882e-06
9.34039e-08
-2.10509e-06
9.1367e-08
-2.13069e-06
8.92262e-08
-2.15558e-06
8.69795e-08
-2.17974e-06
8.46253e-08
-2.20312e-06
8.21626e-08
-2.2257e-06
7.95903e-08
-2.24744e-06
7.69084e-08
-2.26831e-06
7.41166e-08
-2.28827e-06
7.12154e-08
-2.30729e-06
6.82055e-08
-2.32534e-06
6.50876e-08
-2.34238e-06
6.1863e-08
-2.35839e-06
5.85333e-08
-2.37332e-06
5.51e-08
-2.38715e-06
5.1565e-08
-2.39985e-06
4.79306e-08
-2.4114e-06
4.41989e-08
-2.42176e-06
4.03727e-08
-2.4309e-06
3.64547e-08
-2.43881e-06
3.24478e-08
-2.44547e-06
2.83549e-08
-2.45086e-06
2.41794e-08
-2.45496e-06
1.99265e-08
-2.45778e-06
1.56036e-08
-2.45931e-06
1.12198e-08
-2.45955e-06
6.78761e-09
-2.45851e-06
2.32492e-09
-2.45618e-06
-2.14543e-09
-2.4525e-06
-6.61448e-09
-2.4474e-06
-1.11055e-08
-2.44087e-06
-1.56384e-08
-2.43287e-06
-2.02077e-08
-2.42339e-06
-2.48073e-08
-2.41241e-06
-2.94322e-08
-2.39992e-06
-3.40767e-08
-2.38593e-06
-3.87355e-08
-2.37042e-06
-4.34025e-08
-2.3534e-06
-4.80725e-08
-2.33486e-06
-5.27395e-08
-2.31481e-06
-5.73988e-08
-2.29325e-06
-6.20444e-08
-2.27018e-06
-6.66717e-08
-2.24562e-06
-7.12749e-08
-2.21958e-06
-7.58491e-08
-2.19206e-06
-8.03887e-08
-2.16307e-06
-8.48888e-08
-2.13264e-06
-8.93437e-08
-2.10077e-06
-9.37483e-08
-2.06749e-06
-9.80967e-08
-2.03282e-06
-1.02384e-07
-1.99677e-06
-1.06607e-07
-1.95938e-06
-1.1076e-07
-1.92066e-06
-1.14838e-07
-1.88065e-06
-1.18835e-07
-1.83936e-06
-1.22743e-07
-1.79683e-06
-1.26556e-07
-1.7531e-06
-1.30271e-07
-1.70818e-06
-1.33883e-07
-1.66212e-06
-1.3739e-07
-1.61496e-06
-1.4079e-07
-1.56672e-06
-1.44082e-07
-1.51745e-06
-1.47261e-07
-1.46719e-06
-1.50317e-07
-1.41597e-06
-1.53241e-07
-1.36384e-06
-1.56036e-07
-1.31084e-06
-1.58704e-07
-1.25702e-06
-1.61238e-07
-1.20242e-06
-1.63631e-07
-1.14708e-06
-1.65882e-07
-1.09106e-06
-1.6799e-07
-1.03441e-06
-1.69954e-07
-9.77172e-07
-1.71773e-07
-9.19394e-07
-1.73448e-07
-8.61125e-07
-1.74977e-07
-8.02415e-07
-1.76361e-07
-7.4331e-07
-1.77599e-07
-6.83858e-07
-1.78693e-07
-6.24107e-07
-1.79643e-07
-5.64104e-07
-1.80452e-07
-5.03894e-07
-1.81121e-07
-4.43523e-07
-1.81653e-07
-3.83036e-07
-1.82051e-07
-3.22475e-07
-1.82318e-07
-2.61883e-07
-1.82458e-07
-2.013e-07
-1.82475e-07
-1.40766e-07
-1.82371e-07
-8.03178e-08
-1.82154e-07
-1.99887e-08
-1.81827e-07
4.01875e-08
-1.81392e-07
1.00175e-07
-1.80852e-07
1.59943e-07
-1.80214e-07
2.19456e-07
-1.79485e-07
2.78695e-07
-1.78667e-07
3.37653e-07
-1.7775e-07
3.96302e-07
-1.76729e-07
4.54615e-07
-1.7561e-07
5.12585e-07
-1.74431e-07
5.70193e-07
-1.73232e-07
6.27423e-07
-1.7202e-07
6.84261e-07
-1.70785e-07
7.40684e-07
-1.69502e-07
7.96659e-07
-1.68127e-07
8.52131e-07
-1.66588e-07
9.07008e-07
-1.64765e-07
9.61135e-07
-1.62447e-07
1.01425e-06
-1.5925e-07
1.06592e-06
-1.54464e-07
1.11548e-06
-1.4663e-07
1.16202e-06
-1.33043e-07
1.20512e-06
-1.07537e-07
-5.63164e-08
1.24941e-06
-7.27558e-09
-1.33537e-08
-1.88197e-08
2.98894e-10
-3.1739e-08
1.26993e-08
-4.54936e-08
2.35356e-08
-5.99794e-08
3.33711e-08
-7.52372e-08
4.23863e-08
-9.13726e-08
5.06246e-08
-1.0852e-07
5.80978e-08
-1.26789e-07
6.48389e-08
-1.46254e-07
7.09167e-08
-1.66936e-07
7.64289e-08
-1.88827e-07
8.14843e-08
-2.11891e-07
8.61877e-08
-2.36092e-07
9.06288e-08
-2.61388e-07
9.48795e-08
-2.87753e-07
9.89936e-08
-3.15157e-07
1.03012e-07
-3.43585e-07
1.06963e-07
-3.73014e-07
1.10871e-07
-4.03431e-07
1.14752e-07
-4.34806e-07
1.18619e-07
-4.67111e-07
1.2248e-07
-5.00289e-07
1.26334e-07
-5.34273e-07
1.30169e-07
-5.68958e-07
1.33959e-07
-6.04213e-07
1.37655e-07
-6.39886e-07
1.4119e-07
-6.75797e-07
1.44478e-07
-7.11827e-07
1.47423e-07
-7.4786e-07
1.49932e-07
-7.83938e-07
1.51958e-07
-8.20016e-07
1.53563e-07
-8.5583e-07
1.54943e-07
-8.91044e-07
1.5617e-07
-9.25601e-07
1.5718e-07
-9.5946e-07
1.57944e-07
-9.92967e-07
1.58337e-07
-1.0265e-06
1.58279e-07
-1.05987e-06
1.57933e-07
-1.09286e-06
1.57453e-07
-1.12546e-06
1.56827e-07
-1.15791e-06
1.56002e-07
-1.19033e-06
1.55049e-07
-1.22257e-06
1.54117e-07
-1.25453e-06
1.5322e-07
-1.28628e-06
1.52304e-07
-1.31784e-06
1.51365e-07
-1.34922e-06
1.50405e-07
-1.38041e-06
1.49429e-07
-1.41142e-06
1.48434e-07
-1.44224e-06
1.47416e-07
-1.47287e-06
1.46371e-07
-1.50331e-06
1.45292e-07
-1.53354e-06
1.44174e-07
-1.56356e-06
1.43011e-07
-1.59335e-06
1.41795e-07
-1.62289e-06
1.4052e-07
-1.65218e-06
1.3918e-07
-1.68118e-06
1.37767e-07
-1.70988e-06
1.36275e-07
-1.73825e-06
1.34695e-07
-1.76628e-06
1.33023e-07
-1.79393e-06
1.3125e-07
-1.82118e-06
1.29372e-07
-1.84799e-06
1.27382e-07
-1.87436e-06
1.25275e-07
-1.90023e-06
1.23046e-07
-1.92558e-06
1.20691e-07
-1.95038e-06
1.18205e-07
-1.9746e-06
1.15585e-07
-1.99821e-06
1.12829e-07
-2.02116e-06
1.09934e-07
-2.04344e-06
1.06897e-07
-2.065e-06
1.03719e-07
-2.0858e-06
1.00396e-07
-2.10583e-06
9.69303e-08
-2.12503e-06
9.33205e-08
-2.14339e-06
8.95674e-08
-2.16085e-06
8.5672e-08
-2.1774e-06
8.16356e-08
-2.193e-06
7.746e-08
-2.20762e-06
7.31471e-08
-2.22122e-06
6.86995e-08
-2.23378e-06
6.412e-08
-2.24526e-06
5.94118e-08
-2.25564e-06
5.45784e-08
-2.26489e-06
4.96238e-08
-2.27299e-06
4.45526e-08
-2.27991e-06
3.93693e-08
-2.28564e-06
3.40792e-08
-2.29015e-06
2.86882e-08
-2.29343e-06
2.32036e-08
-2.29546e-06
1.76345e-08
-2.29623e-06
1.19911e-08
-2.29573e-06
6.28521e-09
-2.29394e-06
5.29837e-10
-2.29082e-06
-5.26407e-09
-2.28634e-06
-1.10962e-08
-2.28047e-06
-1.69784e-08
-2.27319e-06
-2.29177e-08
-2.2645e-06
-2.8908e-08
-2.25437e-06
-3.49416e-08
-2.2428e-06
-4.10106e-08
-2.22977e-06
-4.71071e-08
-2.21529e-06
-5.32232e-08
-2.19935e-06
-5.93512e-08
-2.18194e-06
-6.54837e-08
-2.16308e-06
-7.16131e-08
-2.14275e-06
-7.77327e-08
-2.12096e-06
-8.38351e-08
-2.09772e-06