/*--------------------------------*- C++ -*----------------------------------*\
| =========                 |                                                 |
| \\      /  F ield         | OpenFOAM: The Open Source CFD Toolbox           |
|  \\    /   O peration     | Version:  5.0                                   |
|   \\  /    A nd           | Web:      www.OpenFOAM.org                      |
|    \\/     M anipulation  |                                                 |
\*---------------------------------------------------------------------------*/
FoamFile
{
    version     2.0;
    format      ascii;
    class       volVectorField;
    location    "287";
    object      U;
}
// * * * * * * * * * * * * * * * * * * * * * * * * * * * * * * * * * * * * * //

dimensions      [0 1 -1 0 0 0 0];

internalField   nonuniform List<vector> 
12225
(
(9.85699 -0.886638 0)
(9.6663 -0.740719 0)
(9.4558 -0.429422 0)
(9.22455 -0.222148 0)
(9.00655 -0.106401 0)
(8.81446 -0.0458206 0)
(8.64763 -0.0151312 0)
(8.50547 0.00048284 0)
(8.38388 0.00841447 0)
(8.28118 0.0122915 0)
(8.19287 0.0140036 0)
(8.11681 0.0149962 0)
(8.05023 0.0153321 0)
(7.99144 0.015518 0)
(7.93855 0.015443 0)
(7.89245 0.0157269 0)
(7.84011 0.0151541 0)
(7.83026 0.00845735 0)
(10.0545 0.227708 0)
(10.1213 0.326963 0)
(10.1196 0.26165 0)
(10.0856 0.186589 0)
(10.0435 0.134693 0)
(9.99677 0.101128 0)
(9.94406 0.0792869 0)
(9.88535 0.0645605 0)
(9.82402 0.0542448 0)
(9.76155 0.046649 0)
(9.70015 0.0408686 0)
(9.6404 0.0363029 0)
(9.58319 0.0326288 0)
(9.52894 0.0297301 0)
(9.47726 0.0271917 0)
(9.42993 0.0261595 0)
(9.38255 0.0234236 0)
(9.34849 0.0313313 0)
(10.0035 0.0581545 0)
(10.0305 0.0559477 0)
(10.056 0.0337723 0)
(10.0704 0.0328833 0)
(10.077 0.0406304 0)
(10.0779 0.0465254 0)
(10.0726 0.0493365 0)
(10.0615 0.0502766 0)
(10.0463 0.0501671 0)
(10.0279 0.0494436 0)
(10.0074 0.0483868 0)
(9.9853 0.047204 0)
(9.96225 0.0459895 0)
(9.93873 0.0448749 0)
(9.91499 0.0437484 0)
(9.89183 0.0432258 0)
(9.86879 0.0420453 0)
(9.84702 0.0435032 0)
(9.99772 0.0109481 0)
(10.0111 0.0266167 0)
(10.035 0.0371187 0)
(10.0525 0.0480609 0)
(10.0644 0.0554284 0)
(10.0735 0.0581585 0)
(10.0796 0.0583238 0)
(10.0825 0.0575756 0)
(10.0829 0.0565179 0)
(10.0814 0.0553098 0)
(10.0784 0.0540216 0)
(10.0741 0.0527684 0)
(10.0688 0.0515424 0)
(10.0628 0.0504414 0)
(10.0561 0.0493593 0)
(10.0494 0.0486554 0)
(10.0425 0.0476011 0)
(10.0355 0.0474143 0)
(9.99935 0.00709923 0)
(10.009 0.0316914 0)
(10.0275 0.0439029 0)
(10.0418 0.049902 0)
(10.0528 0.0535885 0)
(10.0629 0.0552082 0)
(10.0716 0.0554815 0)
(10.0784 0.0551832 0)
(10.0836 0.0546286 0)
(10.0875 0.0539096 0)
(10.0903 0.0530803 0)
(10.0923 0.0522331 0)
(10.0935 0.0513803 0)
(10.0942 0.0505897 0)
(10.0945 0.0498099 0)
(10.0945 0.0492026 0)
(10.0945 0.0484271 0)
(10.0943 0.0478545 0)
(10.0003 0.00914808 0)
(10.0083 0.0312069 0)
(10.0227 0.0409387 0)
(10.035 0.0453776 0)
(10.0451 0.0490154 0)
(10.0548 0.0513424 0)
(10.0638 0.052314 0)
(10.0715 0.0525358 0)
(10.078 0.0523873 0)
(10.0836 0.0520054 0)
(10.0885 0.0514651 0)
(10.0927 0.0508512 0)
(10.0964 0.0501962 0)
(10.0997 0.0495471 0)
(10.1026 0.0488833 0)
(10.1054 0.0482638 0)
(10.108 0.0475341 0)
(10.1106 0.0467331 0)
(10.0004 0.00892226 0)
(10.0071 0.0271066 0)
(10.0191 0.0364082 0)
(10.0302 0.0413765 0)
(10.0396 0.0453896 0)
(10.0487 0.0480444 0)
(10.0573 0.0493013 0)
(10.065 0.0497562 0)
(10.0718 0.049811 0)
(10.078 0.0496106 0)
(10.0835 0.0492314 0)
(10.0886 0.0487482 0)
(10.0933 0.048201 0)
(10.0976 0.0476223 0)
(10.1017 0.0470042 0)
(10.1056 0.046359 0)
(10.1093 0.045605 0)
(10.1131 0.0446876 0)
(10.0004 0.00789911 0)
(10.006 0.0233825 0)
(10.0161 0.0327279 0)
(10.0263 0.0380852 0)
(10.0352 0.0420681 0)
(10.0436 0.0447387 0)
(10.0518 0.0461348 0)
(10.0593 0.0467506 0)
(10.066 0.0469504 0)
(10.0723 0.0468781 0)
(10.078 0.0466109 0)
(10.0834 0.0462162 0)
(10.0885 0.0457371 0)
(10.0932 0.0451975 0)
(10.0977 0.0445951 0)
(10.1021 0.0439224 0)
(10.1064 0.0431287 0)
(10.1105 0.0421519 0)
(10.0004 0.00694913 0)
(10.005 0.0204189 0)
(10.0137 0.0294416 0)
(10.0229 0.0348405 0)
(10.0312 0.0386789 0)
(10.0392 0.0413264 0)
(10.0469 0.0428414 0)
(10.0541 0.0435945 0)
(10.0607 0.0439085 0)
(10.0669 0.0439325 0)
(10.0727 0.043746 0)
(10.0781 0.0434126 0)
(10.0833 0.0429748 0)
(10.0882 0.0424534 0)
(10.0929 0.0418486 0)
(10.0974 0.0411483 0)
(10.1018 0.0403167 0)
(10.1061 0.0393105 0)
(10.0004 0.0061217 0)
(10.0043 0.0178477 0)
(10.0116 0.0262593 0)
(10.0199 0.0315558 0)
(10.0277 0.0352676 0)
(10.0352 0.0378781 0)
(10.0425 0.0394709 0)
(10.0494 0.040325 0)
(10.0558 0.0407236 0)
(10.0618 0.0408186 0)
(10.0675 0.0406907 0)
(10.0729 0.0404 0)
(10.0781 0.0399871 0)
(10.083 0.0394726 0)
(10.0877 0.0388588 0)
(10.0923 0.0381356 0)
(10.0966 0.0372776 0)
(10.1009 0.0362636 0)
(10.0003 0.00536341 0)
(10.0037 0.015536 0)
(10.0099 0.0232174 0)
(10.0173 0.0283154 0)
(10.0245 0.0318843 0)
(10.0315 0.0344169 0)
(10.0384 0.0360333 0)
(10.045 0.0369497 0)
(10.0513 0.0374072 0)
(10.0571 0.037553 0)
(10.0627 0.0374677 0)
(10.068 0.037207 0)
(10.0731 0.0368104 0)
(10.0779 0.0362985 0)
(10.0826 0.0356766 0)
(10.0871 0.0349391 0)
(10.0914 0.0340697 0)
(10.0956 0.0330648 0)
(10.0003 0.00469889 0)
(10.0032 0.0135943 0)
(10.0086 0.020568 0)
(10.0152 0.0253996 0)
(10.0219 0.0288016 0)
(10.0286 0.0312275 0)
(10.0351 0.0328235 0)
(10.0414 0.033765 0)
(10.0474 0.0342549 0)
(10.0531 0.0344308 0)
(10.0586 0.0343715 0)
(10.0638 0.0341299 0)
(10.0688 0.0337434 0)
(10.0735 0.0332336 0)
(10.0781 0.0326085 0)
(10.0825 0.0318671 0)
(10.0867 0.0310004 0)
(10.0907 0.030018 0)
(10.0003 0.00408415 0)
(10.0028 0.0118244 0)
(10.0075 0.0180663 0)
(10.0134 0.0225554 0)
(10.0197 0.0257561 0)
(10.0259 0.02805 0)
(10.0321 0.0295933 0)
(10.0381 0.030533 0)
(10.0439 0.0310372 0)
(10.0495 0.0312303 0)
(10.0548 0.0311878 0)
(10.0598 0.0309598 0)
(10.0647 0.0305821 0)
(10.0694 0.0300765 0)
(10.0738 0.0294538 0)
(10.0781 0.0287178 0)
(10.0822 0.0278647 0)
(10.0861 0.0269144 0)
(10.0002 0.00344906 0)
(10.0024 0.00998523 0)
(10.0064 0.0153831 0)
(10.0117 0.0194047 0)
(10.0174 0.0223204 0)
(10.0232 0.0244226 0)
(10.029 0.0258625 0)
(10.0348 0.0267631 0)
(10.0403 0.027257 0)
(10.0457 0.0274511 0)
(10.0508 0.0274152 0)
(10.0557 0.0271957 0)
(10.0604 0.026826 0)
(10.065 0.0263281 0)
(10.0693 0.0257153 0)
(10.0734 0.0249955 0)
(10.0774 0.02417 0)
(10.0811 0.0232656 0)
(10.0002 0.00278958 0)
(10.002 0.00807513 0)
(10.0055 0.0125289 0)
(10.0101 0.0159531 0)
(10.0153 0.0184819 0)
(10.0206 0.0203171 0)
(10.0261 0.0215898 0)
(10.0314 0.0223999 0)
(10.0367 0.0228475 0)
(10.0418 0.0230186 0)
(10.0468 0.0229738 0)
(10.0515 0.0227547 0)
(10.0561 0.0223914 0)
(10.0604 0.0219055 0)
(10.0646 0.0213116 0)
(10.0686 0.0206211 0)
(10.0724 0.0198389 0)
(10.076 0.0189955 0)
(10.0002 0.0021051 0)
(10.0017 0.00609612 0)
(10.0047 0.0095124 0)
(10.0088 0.0122059 0)
(10.0134 0.0142288 0)
(10.0183 0.0157046 0)
(10.0233 0.0167318 0)
(10.0283 0.017386 0)
(10.0333 0.0177383 0)
(10.0382 0.0178523 0)
(10.0429 0.0177764 0)
(10.0475 0.0175452 0)
(10.0518 0.0171844 0)
(10.056 0.0167137 0)
(10.06 0.0161479 0)
(10.0639 0.0154994 0)
(10.0675 0.0147755 0)
(10.071 0.0140069 0)
(10.0002 0.00139272 0)
(10.0015 0.00403434 0)
(10.0041 0.00631767 0)
(10.0076 0.00814653 0)
(10.0118 0.0095333 0)
(10.0163 0.010542 0)
(10.0209 0.011233 0)
(10.0256 0.0116552 0)
(10.0303 0.0118532 0)
(10.0349 0.0118679 0)
(10.0394 0.0117327 0)
(10.0438 0.0114728 0)
(10.048 0.0111078 0)
(10.052 0.0106533 0)
(10.0558 0.0101224 0)
(10.0595 0.00952651 0)
(10.063 0.00887276 0)
(10.0663 0.00818946 0)
(10.0001 0.000636128 0)
(10.0013 0.00183822 0)
(10.0036 0.00287297 0)
(10.0068 0.00369558 0)
(10.0107 0.00430563 0)
(10.0148 0.00472537 0)
(10.0192 0.0049776 0)
(10.0236 0.0050822 0)
(10.0281 0.00505856 0)
(10.0325 0.00492506 0)
(10.0368 0.00469748 0)
(10.0409 0.00438874 0)
(10.0449 0.00400977 0)
(10.0488 0.00357016 0)
(10.0525 0.00307849 0)
(10.056 0.00254312 0)
(10.0593 0.00196914 0)
(10.0625 0.0013802 0)
(10.0001 -0.000207645 0)
(10.0012 -0.000613868 0)
(10.0034 -0.000994458 0)
(10.0065 -0.00133873 0)
(10.0102 -0.00164678 0)
(10.0143 -0.0019327 0)
(10.0185 -0.00221426 0)
(10.0228 -0.00250355 0)
(10.0271 -0.00280772 0)
(10.0313 -0.00313222 0)
(10.0355 -0.00348105 0)
(10.0395 -0.0038563 0)
(10.0434 -0.00425821 0)
(10.0471 -0.00468576 0)
(10.0507 -0.00513698 0)
(10.0541 -0.00560879 0)
(10.0573 -0.00609979 0)
(10.0603 -0.00659318 0)
(10.0001 -0.00101458 0)
(10.0013 -0.00296604 0)
(10.0037 -0.0047109 0)
(10.007 -0.00616715 0)
(10.0108 -0.00733218 0)
(10.015 -0.0082658 0)
(10.0193 -0.00902936 0)
(10.0237 -0.00966471 0)
(10.028 -0.010206 0)
(10.0323 -0.0106846 0)
(10.0364 -0.011125 0)
(10.0404 -0.0115435 0)
(10.0442 -0.0119509 0)
(10.0479 -0.0123545 0)
(10.0514 -0.0127588 0)
(10.0547 -0.0131659 0)
(10.0579 -0.0135779 0)
(10.0609 -0.0139842 0)
(10.0002 -0.00171032 0)
(10.0015 -0.00501999 0)
(10.0041 -0.00795868 0)
(10.0078 -0.0103213 0)
(10.012 -0.01213 0)
(10.0164 -0.0135347 0)
(10.021 -0.0146414 0)
(10.0255 -0.0155072 0)
(10.03 -0.0161886 0)
(10.0343 -0.016744 0)
(10.0385 -0.0172177 0)
(10.0425 -0.017638 0)
(10.0464 -0.0180239 0)
(10.0501 -0.0183888 0)
(10.0535 -0.0187419 0)
(10.0569 -0.0190883 0)
(10.06 -0.0194323 0)
(10.063 -0.0197671 0)
(10.0002 -0.00237093 0)
(10.0016 -0.00704941 0)
(10.0047 -0.0112044 0)
(10.009 -0.0143843 0)
(10.0137 -0.0166904 0)
(10.0185 -0.0184334 0)
(10.0233 -0.0197732 0)
(10.0281 -0.0207808 0)
(10.0328 -0.0215373 0)
(10.0373 -0.0221236 0)
(10.0416 -0.0225962 0)
(10.0456 -0.0229915 0)
(10.0495 -0.0233356 0)
(10.0532 -0.023648 0)
(10.0567 -0.0239414 0)
(10.06 -0.0242237 0)
(10.0632 -0.0245 0)
(10.0661 -0.0247662 0)
(10.0002 -0.00298878 0)
(10.0018 -0.00910515 0)
(10.0054 -0.0144739 0)
(10.0105 -0.0183723 0)
(10.0159 -0.0211244 0)
(10.0211 -0.0231543 0)
(10.0263 -0.0246172 0)
(10.0314 -0.0256383 0)
(10.0362 -0.0263716 0)
(10.0409 -0.0269269 0)
(10.0452 -0.0273605 0)
(10.0494 -0.0277079 0)
(10.0533 -0.0279983 0)
(10.057 -0.0282539 0)
(10.0605 -0.0284887 0)
(10.0638 -0.0287112 0)
(10.067 -0.0289267 0)
(10.0699 -0.029133 0)
(10.0001 -0.00353187 0)
(10.0018 -0.0115603 0)
(10.0062 -0.0179094 0)
(10.0123 -0.0220141 0)
(10.0183 -0.0250867 0)
(10.024 -0.027502 0)
(10.0296 -0.0291459 0)
(10.035 -0.0301616 0)
(10.0401 -0.0308193 0)
(10.0448 -0.0312836 0)
(10.0493 -0.0316222 0)
(10.0536 -0.0318752 0)
(10.0575 -0.0320767 0)
(10.0613 -0.0322502 0)
(10.0648 -0.0324092 0)
(10.0681 -0.032561 0)
(10.0712 -0.0327091 0)
(10.0741 -0.0328501 0)
(9.99991 -0.0033752 0)
(10.0016 -0.0149908 0)
(10.0073 -0.0227496 0)
(10.0142 -0.0262633 0)
(10.0206 -0.0288529 0)
(10.0268 -0.0312224 0)
(10.0331 -0.0329481 0)
(10.039 -0.0340406 0)
(10.0444 -0.0347446 0)
(10.0494 -0.0352122 0)
(10.054 -0.0355137 0)
(10.0583 -0.0357031 0)
(10.0623 -0.0358266 0)
(10.0659 -0.035915 0)
(10.0693 -0.0359861 0)
(10.0725 -0.0360501 0)
(10.0754 -0.0361115 0)
(10.0781 -0.036169 0)
(9.99859 -0.000382066 0)
(9.99903 -0.0158004 0)
(10.0076 -0.0274446 0)
(10.0166 -0.0325046 0)
(10.0238 -0.0348841 0)
(10.0306 -0.0362435 0)
(10.0376 -0.0369992 0)
(10.0441 -0.0374702 0)
(10.0498 -0.0378227 0)
(10.0549 -0.038073 0)
(10.0595 -0.0382208 0)
(10.0635 -0.0382911 0)
(10.0671 -0.0383136 0)
(10.0702 -0.0383099 0)
(10.073 -0.0382946 0)
(10.0754 -0.0382766 0)
(10.0775 -0.0382596 0)
(10.0794 -0.0382414 0)
(9.99487 0.0014055 0)
(9.99287 -0.00812549 0)
(10.006 -0.0203361 0)
(10.0202 -0.0322714 0)
(10.0306 -0.040481 0)
(10.0392 -0.0441579 0)
(10.0467 -0.0450746 0)
(10.0529 -0.0449345 0)
(10.0577 -0.0444713 0)
(10.0616 -0.0438781 0)
(10.0645 -0.043236 0)
(10.0667 -0.0426013 0)
(10.0681 -0.0420082 0)
(10.069 -0.0414653 0)
(10.0693 -0.0409812 0)
(10.0691 -0.040554 0)
(10.0687 -0.04018 0)
(10.0679 -0.0398331 0)
(9.9947 -0.0305774 0)
(9.99943 -0.0228513 0)
(10.0146 -0.00262298 0)
(10.0304 -0.00190593 0)
(10.0434 -0.0116601 0)
(10.0533 -0.0209283 0)
(10.0594 -0.0272895 0)
(10.0618 -0.0315191 0)
(10.0615 -0.0342963 0)
(10.059 -0.0359947 0)
(10.055 -0.0369283 0)
(10.0497 -0.0373632 0)
(10.0434 -0.0374895 0)
(10.0364 -0.0374279 0)
(10.0288 -0.0372669 0)
(10.0209 -0.0370645 0)
(10.0127 -0.0368839 0)
(10.0045 -0.0366925 0)
(10.0274 -0.183007 0)
(10.0766 -0.288325 0)
(10.0871 -0.247823 0)
(10.0777 -0.186561 0)
(10.0663 -0.140326 0)
(10.0537 -0.108246 0)
(10.0365 -0.0859 0)
(10.0145 -0.070442 0)
(9.98933 -0.0596712 0)
(9.96228 -0.0518951 0)
(9.9343 -0.0460725 0)
(9.90597 -0.0415746 0)
(9.87778 -0.0380181 0)
(9.85006 -0.0351414 0)
(9.82306 -0.0327779 0)
(9.79688 -0.0308536 0)
(9.77177 -0.0293341 0)
(9.74777 -0.0285171 0)
(9.93575 0.689541 0)
(9.86827 0.609594 0)
(9.76457 0.380605 0)
(9.62661 0.21741 0)
(9.48586 0.11924 0)
(9.35716 0.0631578 0)
(9.24263 0.0315453 0)
(9.14103 0.0135935 0)
(9.05136 0.00323971 0)
(8.97236 -0.002821 0)
(8.90244 -0.00637436 0)
(8.84025 -0.00849264 0)
(8.78453 -0.0097391 0)
(8.73441 -0.010497 0)
(8.68897 -0.0109777 0)
(8.64761 -0.0112537 0)
(8.60941 -0.0114777 0)
(8.57405 -0.0121159 0)
(0.00463703 -0.0107433 -8.32343e-19)
(0.016233 -0.0173942 7.35099e-19)
(0.0265349 -0.0152936 0)
(0.033229 -0.00933327 0)
(0.0354039 -0.00234367 0)
(0.0327902 0.00401664 -3.89118e-19)
(0.0264625 0.0089294 0)
(0.017278 0.0123067 0)
(0.00595571 0.0144432 0)
(-0.00696066 0.0157314 0)
(-0.0211253 0.0165574 2.37877e-19)
(-0.0363505 0.01719 0)
(-0.0525263 0.0177728 0)
(-0.0695924 0.0183628 0)
(-0.0875104 0.0189785 0)
(-0.106252 0.0196208 1.2731e-19)
(-0.125789 0.0202906 0)
(-0.146095 0.0209866 0)
(-0.167135 0.021713 0)
(-0.188884 0.0224666 0)
(-0.211311 0.0232447 0)
(-0.234386 0.0240236 0)
(-0.258082 0.0247749 0)
(-0.282368 0.0254411 7.63338e-20)
(-0.307233 0.025969 -7.39388e-20)
(-0.332674 0.0263213 7.20401e-20)
(-0.358765 0.0265422 7.05496e-20)
(-0.385624 0.0267048 0)
(-0.413359 0.026965 0)
(-0.441864 0.0277927 -6.69383e-20)
(-0.470873 0.0243424 -6.46716e-20)
(-0.500198 0.0158848 0)
(-0.527657 0.016969 0)
(-0.554995 0.0285857 -5.65882e-20)
(-0.586349 0.0421205 0)
(-0.620561 0.0695802 0)
(-0.660077 0.0638898 7.26058e-20)
(-0.702544 0.0242491 0)
(-0.737853 0.0244013 7.34498e-20)
(-0.776217 0.0314133 1.40835e-19)
(-0.817928 0.0417935 0)
(-0.859992 0.0409824 0)
(-0.901142 0.0262339 0)
(-0.938551 0.0254319 0)
(-0.975701 0.0339731 0)
(-1.01658 0.0347823 1.14998e-19)
(-1.05714 0.0348625 1.11731e-19)
(-1.09782 0.0347303 1.08623e-19)
(-1.13854 0.0345776 0)
(-1.17927 0.0343543 -1.02926e-19)
(-1.21996 0.0340877 0)
(-1.26056 0.0337798 9.7881e-20)
(-1.30104 0.0334488 9.55757e-20)
(-1.34136 0.0330989 0)
(-1.38151 0.0327372 0)
(-1.42147 0.0323646 0)
(-1.46122 0.0319838 8.75485e-20)
(-1.50075 0.0315937 0)
(-1.54004 0.031195 0)
(-1.57908 0.0307858 0)
(-1.61783 0.0303658 0)
(-1.65629 0.0299332 0)
(-1.69442 0.0294872 0)
(-1.73221 0.0290259 0)
(-1.76963 0.0285485 0)
(-1.80664 0.0280535 -7.42789e-20)
(-1.84323 0.0275403 0)
(-1.87934 0.0270078 0)
(-1.91497 0.0264553 7.07999e-20)
(-1.95005 0.0258822 6.97116e-20)
(-1.98457 0.025288 0)
(-2.01849 0.0246725 -6.76244e-20)
(-2.05176 0.0240352 6.66201e-20)
(-2.08434 0.0233763 0)
(-2.1162 0.0226957 -6.46776e-20)
(-2.1473 0.0219937 0)
(-2.1776 0.0212705 0)
(-2.20705 0.0205268 6.18953e-20)
(-2.23562 0.0197626 0)
(-2.26326 0.0189787 -6.01036e-20)
(-2.28993 0.0181754 0)
(-2.3156 0.0173534 5.83445e-20)
(-2.34022 0.016513 5.74727e-20)
(-2.36375 0.0156545 5.66036e-20)
(-2.38616 0.0147782 1.11472e-19)
(-2.4074 0.013884 -1.09735e-19)
(-2.42743 0.0129715 0)
(-2.44622 0.0120392 0)
(-2.46372 0.0110847 0)
(-2.47989 0.0101036 -1.02721e-19)
(-2.49469 0.00908966 -1.00936e-19)
(-2.50807 0.00803573 9.91346e-20)
(-2.51997 0.00693271 0)
(-2.53033 0.00577046 -9.54722e-20)
(-2.53907 0.00454352 -9.36088e-20)
(-2.54612 0.00326686 -9.17242e-20)
(-2.5514 0.00199429 0)
(-2.55477 0.000817109 0)
(-2.55618 -0.000187836 0)
(-2.55615 -0.00107914 -8.3841e-20)
(-2.55461 -0.0019457 0)
(-2.55159 -0.00279978 0)
(-2.54708 -0.00364886 7.74179e-20)
(-2.54109 -0.00449342 0)
(-2.5336 -0.00533336 0)
(-2.5246 -0.00616813 7.05012e-20)
(-2.51408 -0.00699687 0)
(-2.50205 -0.00781926 0)
(-2.4885 -0.00863437 -6.3024e-20)
(-2.47342 -0.00944205 -6.03949e-20)
(-2.45682 -0.0102413 0)
(-2.43869 -0.0110319 5.49158e-20)
(-2.41905 -0.0118129 0)
(-2.3979 -0.0125843 -4.91233e-20)
(-2.37523 -0.0133449 0)
(-2.35107 -0.0140949 -4.29934e-20)
(-2.32543 -0.0148329 -3.9794e-20)
(-2.2983 -0.0155592 0)
(-2.26971 -0.0162729 0)
(-2.23968 -0.0169745 0)
(-2.20822 -0.0176632 0)
(-2.17535 -0.0183389 0)
(-2.14109 -0.0190001 0)
(-2.10546 -0.0196466 0)
(-2.06849 -0.0202771 -1.04848e-20)
(-2.03019 -0.0208928 6.29214e-21)
(-1.99061 -0.0214932 0)
(-1.94975 -0.02208 0)
(-1.90766 -0.022651 0)
(-1.86436 -0.0232067 0)
(-1.81988 -0.0237463 -3.36324e-20)
(-1.77425 -0.0242696 0)
(-1.72753 -0.0247767 5.43899e-20)
(-1.67974 -0.0252711 -6.5321e-20)
(-1.63091 -0.025749 0)
(-1.58109 -0.0262102 0)
(-1.53032 -0.0266557 0)
(-1.47863 -0.027086 1.13213e-19)
(-1.42608 -0.0275012 1.26352e-19)
(-1.37271 -0.0279021 0)
(-1.31856 -0.0282889 1.54229e-19)
(-1.26367 -0.0286622 1.69035e-19)
(-1.2081 -0.0290224 -1.84469e-19)
(-1.15188 -0.0293698 0)
(-1.09506 -0.0297053 0)
(-1.03769 -0.0300289 -2.34988e-19)
(-0.9798 -0.0303418 0)
(-0.921444 -0.0306443 0)
(-0.862663 -0.0309375 0)
(-0.8035 -0.031222 0)
(-0.743998 -0.0314991 3.36669e-19)
(-0.684197 -0.0317693 3.60291e-19)
(-0.624137 -0.0320343 0)
(-0.563857 -0.0322944 4.11606e-19)
(-0.503396 -0.0325513 0)
(-0.44279 -0.0328056 0)
(-0.382074 -0.0330583 5.00787e-19)
(-0.321285 -0.033309 0)
(-0.260458 -0.0335608 5.7041e-19)
(-0.199627 -0.0338217 0)
(-0.138827 -0.0341059 0)
(-0.078099 -0.034383 6.95054e-19)
(-0.0174962 -0.0344508 0)
(0.0429138 -0.0339225 7.39794e-19)
(0.103193 -0.0329893 0)
(0.163284 -0.0320566 0)
(0.223144 -0.0311782 0)
(0.282769 -0.0303493 -6.71162e-19)
(0.342165 -0.0295622 0)
(0.401329 -0.0288074 6.43895e-19)
(0.460246 -0.0280749 0)
(0.518877 -0.0273512 0)
(0.577152 -0.0266166 0)
(0.634931 -0.0258394 0)
(0.692009 -0.0249606 0)
(0.747762 -0.0238686 0)
(0.801884 -0.0222892 0)
(0.849479 -0.0195734 -1.13609e-18)
(0.89638 -0.014147 0)
(0.889479 0.00311357 0)
(0.00480537 -0.0329067 1.94204e-18)
(0.0108264 -0.0335407 -1.10693e-18)
(0.0111528 -0.0212705 0)
(0.00846366 -0.00783789 3.48662e-19)
(0.00332626 0.00492092 0)
(-0.00393237 0.0161259 1.36455e-19)
(-0.013311 0.0253254 -2.49978e-19)
(-0.024717 0.0325087 -2.31082e-19)
(-0.0380236 0.0379673 0)
(-0.0530339 0.042124 -1.97904e-19)
(-0.069521 0.0453974 -9.1601e-20)
(-0.0873028 0.0481153 0)
(-0.106248 0.0504949 0)
(-0.126263 0.0526587 0)
(-0.147283 0.0546702 0)
(-0.169269 0.0565569 -6.45604e-20)
(-0.192197 0.0583317 0)
(-0.216057 0.0599983 1.15354e-19)
(-0.240849 0.0615613 0)
(-0.266582 0.063023 0)
(-0.293277 0.0643907 -1.00932e-19)
(-0.320964 0.0656715 0)
(-0.349687 0.0668821 9.46033e-20)
(-0.379496 0.0680459 -4.62261e-20)
(-0.410459 0.069209 4.53111e-20)
(-0.442629 0.0704465 -4.46321e-20)
(-0.476083 0.0718278 -4.41963e-20)
(-0.510823 0.0733928 0)
(-0.546761 0.0751464 0)
(-0.583491 0.0769783 4.38105e-20)
(-0.621529 0.0783795 -4.31548e-20)
(-0.661415 0.0792058 0)
(-0.702766 0.0802241 0)
(-0.745655 0.0811072 4.07771e-20)
(-0.788429 0.0817329 0)
(-0.828985 0.0829893 0)
(-0.868771 0.0852448 -4.19389e-20)
(-0.909243 0.087099 0)
(-0.951634 0.0886523 3.91458e-20)
(-0.992078 0.0895503 -7.47584e-20)
(-1.03023 0.0902229 0)
(-1.06799 0.0904561 0)
(-1.10735 0.0898599 -1.33558e-19)
(-1.14774 0.0895339 -1.30179e-19)
(-1.18759 0.0895788 -1.26928e-19)
(-1.22587 0.0893051 6.18928e-20)
(-1.26363 0.0887482 -6.0808e-20)
(-1.30096 0.0880084 -1.78369e-19)
(-1.33791 0.0871409 1.16428e-19)
(-1.3745 0.0861852 5.72196e-20)
(-1.41077 0.0851668 0)
(-1.44673 0.0841029 -5.51088e-20)
(-1.48239 0.0830078 5.38421e-20)
(-1.51775 0.0818888 0)
(-1.55281 0.0807518 0)
(-1.58755 0.0795976 0)
(-1.62198 0.0784276 -5.0586e-20)
(-1.65608 0.0772397 0)
(-1.68984 0.0760328 9.77508e-20)
(-1.72323 0.074804 0)
(-1.75625 0.0735511 9.48208e-20)
(-1.78887 0.0722711 0)
(-1.82107 0.0709617 -9.20698e-20)
(-1.85283 0.06962 0)
(-1.88412 0.0682442 8.94696e-20)
(-1.91493 0.0668317 -4.39827e-20)
(-1.94521 0.0653813 0)
(-1.97495 0.0638913 -8.57977e-20)
(-2.00412 0.0623608 -4.24304e-20)
(-2.03268 0.0607887 -4.18507e-20)
(-2.06061 0.0591748 0)
(-2.08787 0.0575186 -4.04982e-20)
(-2.11444 0.0558202 -4.01608e-20)
(-2.14027 0.05408 0)
(-2.16535 0.0522983 3.90643e-20)
(-2.18964 0.0504761 -7.68543e-20)
(-2.2131 0.0486143 0)
(-2.23571 0.0467144 -3.74444e-20)
(-2.25743 0.0447775 0)
(-2.27822 0.0428051 1.08956e-19)
(-2.29806 0.0407987 0)
(-2.31692 0.0387602 -1.05742e-19)
(-2.33476 0.0366909 -3.47508e-20)
(-2.35155 0.0345926 3.40897e-20)
(-2.36727 0.0324669 6.7102e-20)
(-2.38187 0.0303155 -6.60158e-20)
(-2.39534 0.0281398 0)
(-2.40765 0.0259411 0)
(-2.41875 0.02372 0)
(-2.42864 0.0214758 1.84854e-19)
(-2.43729 0.019207 6.0474e-20)
(-2.44468 0.0169129 -5.92811e-20)
(-2.4508 0.0145926 0)
(-2.45565 0.0122425 -5.68468e-20)
(-2.45923 0.00985604 5.55923e-20)
(-2.46159 0.00743112 5.43254e-20)
(-2.46278 0.00499276 0)
(-2.46292 0.00261344 0)
(-2.46211 0.000380588 0)
(-2.45992 -0.00173583 4.89774e-20)
(-2.45634 -0.00381008 0)
(-2.45131 -0.00585494 -9.24809e-20)
(-2.44484 -0.00787867 -1.34281e-19)
(-2.43689 -0.00988173 8.66586e-20)
(-2.42747 -0.011863 0)
(-2.41656 -0.0138206 4.04658e-20)
(-2.40415 -0.0157524 0)
(-2.39025 -0.0176567 7.43656e-20)
(-2.37485 -0.0195315 -3.5771e-20)
(-2.35794 -0.0213754 -3.41483e-20)
(-2.33953 -0.0231864 0)
(-2.31961 -0.0249633 -9.14963e-20)
(-2.2982 -0.026704 5.77029e-20)
(-2.27529 -0.0284075 2.6832e-20)
(-2.2509 -0.0300717 0)
(-2.22503 -0.0316958 2.32001e-20)
(-2.19768 -0.0332776 6.46171e-20)
(-2.16888 -0.0348161 0)
(-2.13864 -0.0363098 3.56922e-20)
(-2.10697 -0.0377586 3.18036e-20)
(-2.07388 -0.0391615 2.78515e-20)
(-2.03941 -0.0405178 0)
(-2.00356 -0.0418249 0)
(-1.96636 -0.0430816 0)
(-1.92783 -0.0442853 -6.10094e-21)
(-1.88799 -0.0454368 -3.15621e-21)
(-1.84688 -0.0465351 0)
(-1.80451 -0.0475821 1.60555e-21)
(-1.76093 -0.0485766 6.07088e-21)
(-1.71615 -0.0495207 0)
(-1.67021 -0.0504134 1.61177e-20)
(-1.62314 -0.0512513 3.97088e-20)
(-1.57498 -0.0520284 -2.55402e-20)
(-1.52577 -0.0527517 -2.83925e-20)
(-1.47553 -0.0534247 0)
(-1.42432 -0.0540448 0)
(-1.37216 -0.0546087 0)
(-1.31911 -0.0551186 -5.02138e-20)
(-1.2652 -0.0555752 5.32296e-20)
(-1.21048 -0.05598 1.18926e-19)
(-1.15499 -0.0563336 -6.57877e-20)
(-1.09877 -0.0566372 6.89184e-20)
(-1.04188 -0.0568919 7.64893e-20)
(-0.984356 -0.0570989 0)
(-0.926239 -0.0572593 0)
(-0.867574 -0.0573744 -9.07496e-20)
(-0.808408 -0.0574456 0)
(-0.748782 -0.0574748 0)
(-0.688742 -0.0574635 2.17929e-19)
(-0.628329 -0.0574137 0)
(-0.567586 -0.0573274 1.19502e-19)
(-0.506554 -0.0572067 -1.27797e-19)
(-0.445274 -0.0570536 0)
(-0.383784 -0.0568705 1.3753e-19)
(-0.322123 -0.056659 0)
(-0.260327 -0.0564214 0)
(-0.198433 -0.056159 -1.58511e-19)
(-0.136474 -0.0558725 3.273e-19)
(-0.0744848 -0.0555621 -1.7123e-19)
(-0.0124968 -0.0552289 0)
(0.0494711 -0.054871 0)
(0.111398 -0.0544857 1.79718e-19)
(0.173273 -0.0540248 0)
(0.235025 -0.053362 1.83348e-19)
(0.296575 -0.052534 0)
(0.35792 -0.0516832 0)
(0.419085 -0.0508526 0)
(0.480065 -0.0500468 1.92491e-19)
(0.540855 -0.0492598 0)
(0.601443 -0.048482 -1.95425e-19)
(0.661808 -0.0476991 0)
(0.721909 -0.0468904 0)
(0.781671 -0.0460211 3.96545e-19)
(0.840959 -0.0450329 -3.98776e-19)
(0.899565 -0.0438122 0)
(0.956976 -0.0421473 0)
(1.01278 -0.0395026 0)
(1.06405 -0.0348907 1.22788e-18)
(1.11389 -0.0249394 0)
(1.14047 -0.000928178 -8.52736e-19)
(0.000355205 -0.0416509 -8.01323e-22)
(-0.00173913 -0.028892 1.07672e-18)
(-0.00774566 -0.0101823 0)
(-0.0157534 0.00716044 -4.40831e-19)
(-0.0252634 0.0228071 0)
(-0.0359679 0.036676 0)
(-0.0478554 0.0486749 4.74796e-23)
(-0.0610186 0.0587967 1.36571e-19)
(-0.0755389 0.0671895 1.28502e-19)
(-0.091439 0.0741288 1.21505e-19)
(-0.108682 0.0799398 0)
(-0.127197 0.0849256 0)
(-0.146907 0.0893316 -1.03581e-19)
(-0.167738 0.093334 -1.97042e-19)
(-0.189637 0.0970506 1.87791e-19)
(-0.212564 0.100556 0)
(-0.236497 0.103901 1.71787e-19)
(-0.261428 0.107119 -8.25308e-20)
(-0.287357 0.110241 0)
(-0.314294 0.113296 1.53462e-19)
(-0.342255 0.116316 7.44203e-20)
(-0.371262 0.119336 -1.44636e-19)
(-0.401338 0.122394 -7.06294e-20)
(-0.4325 0.125529 0)
(-0.464758 0.128776 1.35786e-19)
(-0.498104 0.132155 1.33735e-19)
(-0.532474 0.135666 0)
(-0.567717 0.139218 1.29948e-19)
(-0.603642 0.14261 0)
(-0.640021 0.145535 1.25452e-19)
(-0.676946 0.147534 6.14342e-20)
(-0.714501 0.14865 0)
(-0.752513 0.15002 0)
(-0.790541 0.152054 0)
(-0.827743 0.154133 0)
(-0.863834 0.156392 0)
(-0.899034 0.157096 0)
(-0.934234 0.155881 1.05853e-19)
(-0.969721 0.154788 -1.53585e-19)
(-1.00484 0.153926 0)
(-1.03904 0.15265 0)
(-1.07255 0.150254 0)
(-1.10642 0.147205 -1.17613e-23)
(-1.14076 0.14486 8.90424e-20)
(-1.17478 0.143136 1.74187e-19)
(-1.20814 0.141348 -1.70564e-19)
(-1.24114 0.139543 -8.35144e-20)
(-1.27386 0.13773 8.20078e-20)
(-1.30633 0.135909 -1.32362e-22)
(-1.33858 0.134074 7.88592e-20)
(-1.37061 0.132224 0)
(-1.40243 0.130357 7.60947e-20)
(-1.43404 0.128477 -1.51227e-22)
(-1.46546 0.126581 0)
(-1.49666 0.12467 0)
(-1.52764 0.122741 -7.11889e-20)
(-1.5584 0.120791 0)
(-1.58891 0.118816 0)
(-1.61917 0.116811 6.778e-20)
(-1.64914 0.114773 1.33841e-19)
(-1.67883 0.112697 -6.60883e-20)
(-1.7082 0.110578 0)
(-1.73723 0.108414 6.4184e-20)
(-1.7659 0.1062 0)
(-1.79419 0.103933 6.20637e-20)
(-1.82207 0.10161 6.14859e-20)
(-1.84951 0.0992298 -1.20949e-19)
(-1.87648 0.0967895 -5.94833e-20)
(-1.90297 0.094288 0)
(-1.92893 0.0917245 1.15942e-19)
(-1.95433 0.0890984 0)
(-1.97915 0.0864097 1.69197e-19)
(-2.00336 0.0836588 1.1112e-19)
(-2.02691 0.0808463 1.09541e-19)
(-2.04979 0.0779732 -1.07971e-19)
(-2.07196 0.0750411 1.59726e-19)
(-2.09338 0.0720516 0)
(-2.11402 0.0690069 0)
(-2.13385 0.065909 -1.01744e-19)
(-2.15284 0.0627605 -1.50374e-19)
(-2.17095 0.0595638 0)
(-2.18815 0.0563218 4.8611e-20)
(-2.20442 0.0530371 0)
(-2.21971 0.0497127 -1.40932e-19)
(-2.23401 0.0463515 -1.1771e-22)
(-2.24728 0.0429565 1.03982e-22)
(-2.25948 0.0395308 8.90907e-20)
(-2.27061 0.0360774 0)
(-2.28062 0.0325993 -8.5799e-20)
(-2.28949 0.029099 -4.59444e-23)
(-2.29722 0.0255795 0)
(-2.30377 0.0220457 0)
(-2.30915 0.0185046 0)
(-2.31334 0.0149661 7.72023e-20)
(-2.31633 0.0114438 0)
(-2.31815 0.00795672 0)
(-2.31877 0.00452751 0)
(-2.31817 0.00116546 0)
(-2.31629 -0.00215968 0)
(-2.31306 -0.00546909 6.59825e-20)
(-2.30847 -0.00875339 0)
(-2.30248 -0.012009 6.1835e-20)
(-2.29508 -0.0152337 5.97766e-20)
(-2.28626 -0.0184245 -5.76895e-20)
(-2.27601 -0.0215782 0)
(-2.26432 -0.0246909 -5.34277e-20)
(-2.25117 -0.0277595 0)
(-2.23657 -0.0307805 -4.90478e-20)
(-2.22051 -0.0337513 4.68132e-20)
(-2.20299 -0.0366686 1.34215e-19)
(-2.18401 -0.0395299 0)
(-2.16357 -0.0423324 1.20426e-19)
(-2.14167 -0.0450736 3.82443e-20)
(-2.11832 -0.0477508 0)
(-2.09352 -0.0503617 6.62963e-20)
(-2.06728 -0.052904 6.14466e-20)
(-2.03962 -0.0553752 -8.44131e-20)
(-2.01053 -0.0577729 0)
(-1.98004 -0.0600954 -2.28524e-20)
(-1.94816 -0.0623414 -2.03013e-20)
(-1.91491 -0.0645098 -5.40826e-20)
(-1.8803 -0.0665985 0)
(-1.84435 -0.0686048 0)
(-1.80709 -0.0705258 0)
(-1.76853 -0.0723595 -8.18347e-21)
(-1.72869 -0.0741048 0)
(-1.68761 -0.0757615 0)
(-1.64532 -0.0773303 -9.98311e-22)
(-1.60183 -0.0788117 -3.76136e-21)
(-1.55718 -0.0802064 0)
(-1.5114 -0.0815137 0)
(-1.46452 -0.0827295 -2.43312e-20)
(-1.41658 -0.0838493 0)
(-1.3676 -0.0848777 3.5716e-20)
(-1.31763 -0.085818 4.02152e-20)
(-1.26671 -0.0866685 0)
(-1.21487 -0.0874266 0)
(-1.16215 -0.0880936 -5.75468e-20)
(-1.1086 -0.0886711 -1.30171e-21)
(-1.05426 -0.0891607 -1.31537e-21)
(-0.999164 -0.089564 0)
(-0.943367 -0.0898826 -1.63313e-19)
(-0.886909 -0.0901181 0)
(-0.829832 -0.0902724 0)
(-0.77218 -0.0903473 0)
(-0.713997 -0.0903449 1.06063e-19)
(-0.655325 -0.0902675 0)
(-0.596208 -0.0901177 -2.33178e-19)
(-0.536689 -0.0898981 -1.23947e-19)
(-0.47681 -0.0896118 0)
(-0.416612 -0.0892616 -1.35878e-19)
(-0.356136 -0.0888508 0)
(-0.295422 -0.0883822 0)
(-0.234508 -0.0878596 -4.584e-19)
(-0.173431 -0.0872853 3.16529e-19)
(-0.112228 -0.086662 0)
(-0.0509325 -0.0859928 3.40203e-19)
(0.010425 -0.085282 -1.76562e-19)
(0.0718136 -0.0845321 0)
(0.133199 -0.083743 0)
(0.19455 -0.0829113 0)
(0.25584 -0.0820403 -5.66722e-19)
(0.317059 -0.0811291 0)
(0.378196 -0.080179 -1.9578e-19)
(0.439217 -0.0791955 0)
(0.500108 -0.0781971 0)
(0.56086 -0.0772055 0)
(0.621457 -0.0762245 0)
(0.681884 -0.075248 0)
(0.742125 -0.0742649 0)
(0.802156 -0.073256 -4.27359e-19)
(0.861935 -0.0721913 0)
(0.921389 -0.0710197 -2.19331e-19)
(0.980395 -0.0696537 6.62328e-19)
(1.03876 -0.0679314 0)
(1.09607 -0.065549 0)
(1.15202 -0.061858 -4.5373e-19)
(1.20468 -0.0556093 -4.60569e-19)
(1.25706 -0.0437946 4.65944e-19)
(1.29689 -0.0189021 4.80054e-19)
(-0.00464146 -0.0339255 -2.9855e-18)
(-0.0124454 -0.0120776 -1.29638e-18)
(-0.0224161 0.0100465 -4.70048e-19)
(-0.0339999 0.0294914 -1.67544e-19)
(-0.0465824 0.0468753 0)
(-0.0598315 0.0624427 2.42585e-19)
(-0.073791 0.0762599 -1.10878e-19)
(-0.0885961 0.0883708 0)
(-0.104369 0.0988828 -9.77997e-20)
(-0.121197 0.107982 0)
(-0.139123 0.115907 1.77161e-19)
(-0.15815 0.122901 0)
(-0.178259 0.129188 8.10134e-20)
(-0.199416 0.134946 1.55302e-19)
(-0.221589 0.140314 -1.49095e-19)
(-0.244746 0.14539 0)
(-0.268867 0.150245 -1.38152e-19)
(-0.293932 0.154934 0)
(-0.319927 0.1595 0)
(-0.346839 0.163979 -1.25084e-19)
(-0.37465 0.168402 0)
(-0.403339 0.172796 2.77202e-23)
(-0.432871 0.177177 0)
(-0.463195 0.181548 0)
(-0.494238 0.185886 -4.3229e-23)
(-0.525898 0.190133 -1.0844e-19)
(-0.558044 0.194179 -1.06213e-19)
(-0.590513 0.197876 -1.04074e-19)
(-0.62315 0.201035 0)
(-0.655837 0.203463 -1.98207e-19)
(-0.688562 0.205042 0)
(-0.721339 0.205912 -9.35986e-20)
(-0.754091 0.20657 0)
(-0.786567 0.207194 0)
(-0.818552 0.207641 8.68755e-20)
(-0.849977 0.207806 0)
(-0.880915 0.207285 -8.30871e-20)
(-0.91162 0.205901 -1.48105e-23)
(-0.942271 0.204131 1.57978e-19)
(-0.972763 0.20222 -1.54045e-19)
(-1.00293 0.200083 0)
(-1.03287 0.197535 0)
(-1.06283 0.194705 -7.17319e-20)
(-1.09281 0.191993 0)
(-1.12262 0.189456 -6.87566e-20)
(-1.15223 0.186943 6.73679e-20)
(-1.18168 0.184444 6.60541e-20)
(-1.21099 0.181964 0)
(-1.24018 0.1795 -6.36185e-20)
(-1.26924 0.177045 -6.24823e-20)