# vtk DataFile Version 2.0
track0
ASCII
DATASET POLYDATA
POINTS 12015 float
-0.0205 0.001 1e-05
-0.0202034 0.00100022 1e-05
-0.0199069 0.00100067 1e-05
-0.0196103 0.00100132 1e-05
-0.0193137 0.00100219 1e-05
-0.0190172 0.00100326 1e-05
-0.0187132 0.00100466 1e-05
-0.0184093 0.00100588 1e-05
-0.0181054 0.0010071 1e-05
-0.0178015 0.00100832 1e-05
-0.0174976 0.00100953 1e-05
-0.0172058 0.00101083 1e-05
-0.016914 0.00101193 1e-05
-0.0166222 0.00101303 1e-05
-0.0163305 0.00101413 1e-05
-0.0160387 0.00101523 1e-05
-0.0157586 0.00101636 1e-05
-0.0154784 0.00101745 1e-05
-0.0151983 0.00101856 1e-05
-0.0149182 0.00101972 1e-05
-0.0146381 0.0010209 1e-05
-0.0143747 0.00102209 1e-05
-0.0141113 0.00102327 1e-05
-0.0138479 0.00102449 1e-05
-0.0135845 0.00102574 1e-05
-0.0133621 0.00102682 1e-05
-0.0133484 0.00102689 1e-05
-0.0133346 0.00102695 1e-05
-0.0133209 0.00102702 1e-05
-0.0133072 0.00102709 1e-05
-0.0132934 0.00102716 1e-05
-0.0130353 0.00102845 1e-05
-0.0127771 0.00102975 1e-05
-0.0125189 0.00103107 1e-05
-0.0122607 0.0010324 1e-05
-0.0120025 0.00103376 1e-05
-0.0117547 0.00103506 1e-05
-0.0115068 0.00103638 1e-05
-0.0112589 0.0010377 1e-05
-0.0110111 0.00103903 1e-05
-0.0107632 0.00104036 1e-05
-0.0105252 0.00104163 1e-05
-0.0102873 0.00104291 1e-05
-0.0100493 0.00104419 1e-05
-0.00981133 0.00104547 1e-05
-0.00957337 0.00104675 1e-05
-0.00934491 0.00104797 1e-05
-0.00911645 0.00104919 1e-05
-0.00888799 0.00105041 1e-05
-0.00865954 0.00105163 1e-05
-0.00843108 0.00105285 1e-05
-0.00821175 0.001054 1e-05
-0.00799242 0.00105516 1e-05
-0.00777309 0.00105632 1e-05
-0.00755376 0.00105747 1e-05
-0.00733443 0.00105861 1e-05
-0.00712387 0.0010597 1e-05
-0.0069133 0.0010608 1e-05
-0.00670273 0.00106188 1e-05
-0.00649216 0.00106297 1e-05
-0.0062816 0.00106405 1e-05
-0.00607944 0.00106507 1e-05
-0.00587729 0.0010661 1e-05
-0.00567514 0.00106713 1e-05
-0.00547298 0.00106815 1e-05
-0.00527083 0.00106916 1e-05
-0.00507675 0.00107013 1e-05
-0.00488267 0.00107109 1e-05
-0.0046886 0.00107206 1e-05
-0.00449452 0.00107302 1e-05
-0.00430044 0.00107397 1e-05
-0.00411412 0.00107488 1e-05
-0.0039278 0.00107579 1e-05
-0.00374147 0.0010767 1e-05
-0.00355515 0.00107761 1e-05
-0.00336883 0.00107851 1e-05
-0.00318995 0.00107937 1e-05
-0.00301107 0.00108023 1e-05
-0.00283219 0.00108109 1e-05
-0.00265331 0.00108194 1e-05
-0.00247443 0.0010828 1e-05
-0.0023027 0.00108361 1e-05
-0.00213097 0.00108443 1e-05
-0.00195924 0.00108525 1e-05
-0.0017875 0.00108607 1e-05
-0.00161577 0.00108688 1e-05
-0.0014509 0.00108766 1e-05
-0.00128603 0.00108844 1e-05
-0.00112116 0.00108923 1e-05
-0.000956289 0.00109001 1e-05
-0.000791418 0.0010908 1e-05
-0.000633135 0.00109156 1e-05
-0.000474851 0.00109232 1e-05
-0.000316567 0.00109309 1e-05
-0.000158284 0.00109385 1e-05
0 0.00109462 1e-05
0.000105677 0.00109513 1e-05
0.000211355 0.00109564 1e-05
0.000317032 0.00109615 1e-05
0.00042271 0.00109666 1e-05
0.000528387 0.00109716 1e-05
0.000634886 0.00109766 1e-05
0.000741385 0.00109816 1e-05
0.000847885 0.00109866 1e-05
0.000954384 0.00109916 1e-05
0.00106088 0.00109965 1e-05
0.00116821 0.00110013 1e-05
0.00127554 0.00110062 1e-05
0.00138286 0.00110109 1e-05
0.00149019 0.00110156 1e-05
0.00159752 0.00110203 1e-05
0.00170568 0.00110248 1e-05
0.00181384 0.00110294 1e-05
0.001922 0.00110338 1e-05
0.00203016 0.00110381 1e-05
0.00213833 0.00110424 1e-05
0.00224733 0.00110466 1e-05
0.00235633 0.00110507 1e-05
0.00246533 0.00110547 1e-05
0.00257434 0.00110587 1e-05
0.00268334 0.00110625 1e-05
0.00279319 0.00110663 1e-05
0.00290304 0.001107 1e-05
0.00301289 0.00110737 1e-05
0.00312274 0.00110773 1e-05
0.00323259 0.00110807 1e-05
0.00334329 0.00110841 1e-05
0.003454 0.00110875 1e-05
0.0035647 0.00110908 1e-05
0.0036754 0.00110939 1e-05
0.00378611 0.00110971 1e-05
0.00389767 0.00111001 1e-05
0.00400924 0.00111031 1e-05
0.0041208 0.0011106 1e-05
0.00423237 0.00111088 1e-05
0.00434393 0.00111115 1e-05
0.00445636 0.00111142 1e-05
0.00456879 0.00111168 1e-05
0.00468123 0.00111193 1e-05
0.00479366 0.00111217 1e-05
0.00490609 0.00111241 1e-05
0.0050194 0.00111264 1e-05
0.0051327 0.00111286 1e-05
0.00524601 0.00111307 1e-05
0.00535932 0.00111328 1e-05
0.00547262 0.00111348 1e-05
0.00558681 0.00111367 1e-05
0.005701 0.00111385 1e-05
0.00581518 0.00111403 1e-05
0.00592937 0.0011142 1e-05
0.00604356 0.00111436 1e-05
0.00615863 0.00111451 1e-05
0.00627371 0.00111466 1e-05
0.00638878 0.0011148 1e-05
0.00650386 0.00111493 1e-05
0.00661893 0.00111505 1e-05
0.0067349 0.00111517 1e-05
0.00685087 0.00111527 1e-05
0.00696684 0.00111537 1e-05
0.00708281 0.00111547 1e-05
0.00719878 0.00111555 1e-05
0.00731485 0.00111563 1e-05
0.00743093 0.0011157 1e-05
0.007547 0.00111576 1e-05
0.00766308 0.00111581 1e-05
0.00777258 0.00111586 1e-05
0.00777469 0.00111586 1e-05
0.0077768 0.00111586 1e-05
0.00777891 0.00111586 1e-05
0.00778102 0.00111586 1e-05
0.00778313 0.00111586 1e-05
0.00790091 0.0011159 1e-05
0.00801869 0.00111593 1e-05
0.00813647 0.00111595 1e-05
0.00825425 0.00111596 1e-05
0.00837203 0.00111597 1e-05
0.00849073 0.00111597 1e-05
0.00860942 0.00111595 1e-05
0.00872812 0.00111594 1e-05
0.00884682 0.00111591 1e-05
0.00896551 0.00111587 1e-05
0.00908513 0.00111582 1e-05
0.00920475 0.00111577 1e-05
0.00932437 0.00111571 1e-05
0.00944398 0.00111564 1e-05
0.0095636 0.00111556 1e-05
0.00968415 0.00111547 1e-05
0.0098047 0.00111537 1e-05
0.00992525 0.00111527 1e-05
0.0100458 0.00111516 1e-05
0.0101663 0.00111504 1e-05
0.0102878 0.00111489 1e-05
0.0104093 0.00111475 1e-05
0.0105308 0.00111461 1e-05
0.0106523 0.00111445 1e-05
0.0107738 0.00111428 1e-05
0.0108962 0.00111409 1e-05
0.0110186 0.00111391 1e-05
0.0111411 0.00111371 1e-05
0.0112635 0.00111351 1e-05
0.0113859 0.0011133 1e-05
0.0115093 0.00111306 1e-05
0.0116327 0.00111283 1e-05
0.0117561 0.00111259 1e-05
0.0118795 0.00111234 1e-05
0.0120028 0.00111208 1e-05
0.0121272 0.00111179 1e-05
0.0122515 0.00111151 1e-05
0.0123759 0.00111122 1e-05
0.0125002 0.00111092 1e-05
0.0126245 0.00111061 1e-05
0.0127498 0.00111028 1e-05
0.0128752 0.00110995 1e-05
0.0130005 0.00110961 1e-05
0.0131258 0.00110926 1e-05
0.0132511 0.0011089 1e-05
0.0133774 0.00110852 1e-05
0.0135036 0.00110814 1e-05
0.0136299 0.00110775 1e-05
0.0137562 0.00110734 1e-05
0.0138825 0.00110693 1e-05
0.0140098 0.0011065 1e-05
0.014137 0.00110607 1e-05
0.0142643 0.00110562 1e-05
0.0143915 0.00110517 1e-05
0.0145188 0.00110471 1e-05
0.0146471 0.00110422 1e-05
0.0147753 0.00110373 1e-05
0.0149036 0.00110324 1e-05
0.0150318 0.00110273 1e-05
0.0151601 0.00110221 1e-05
0.0152893 0.00110168 1e-05
0.0154186 0.00110113 1e-05
0.0155478 0.00110058 1e-05
0.0156771 0.00110002 1e-05
0.0158063 0.00109945 1e-05
0.0159366 0.00109886 1e-05
0.0160668 0.00109827 1e-05
0.0161971 0.00109766 1e-05
0.0163274 0.00109704 1e-05
0.0164576 0.00109641 1e-05
0.0165889 0.00109578 1e-05
0.0167201 0.00109512 1e-05
0.0168514 0.00109446 1e-05
0.0169827 0.00109379 1e-05
0.0171139 0.00109311 1e-05
0.0172462 0.00109241 1e-05
0.0173785 0.00109171 1e-05
0.0175108 0.00109099 1e-05
0.0176431 0.00109026 1e-05
0.0177754 0.00108952 1e-05
0.0179087 0.00108878 1e-05
0.018042 0.00108802 1e-05
0.0181753 0.00108724 1e-05
0.0183087 0.00108645 1e-05
0.018442 0.00108566 1e-05
0.0185763 0.00108486 1e-05
0.0187107 0.00108405 1e-05
0.018845 0.00108321 1e-05
0.0189794 0.00108236 1e-05
0.0191137 0.00108152 1e-05
0.0192491 0.00108067 1e-05
0.0193845 0.00107979 1e-05
0.0195199 0.0010789 1e-05
0.0196553 0.001078 1e-05
0.0197907 0.00107709 1e-05
0.0199272 0.00107619 1e-05
0.0200636 0.00107526 1e-05
0.0202001 0.00107431 1e-05
0.0203365 0.00107335 1e-05
0.020473 0.00107239 1e-05
0.0206105 0.00107143 1e-05
0.020748 0.00107044 1e-05
0.0208855 0.00106943 1e-05
0.021023 0.00106841 1e-05
0.0211606 0.0010674 1e-05
0.0212991 0.00106638 1e-05
0.0214377 0.00106534 1e-05
0.0215763 0.00106427 1e-05
0.0217149 0.0010632 1e-05
0.0218535 0.00106212 1e-05
0.0219931 0.00106105 1e-05
0.0221328 0.00105995 1e-05
0.0222724 0.00105883 1e-05
0.0224121 0.00105769 1e-05
0.0225517 0.00105656 1e-05
0.0226925 0.00105543 1e-05
0.0228332 0.00105428 1e-05
0.022974 0.00105309 1e-05
0.0231147 0.0010519 1e-05
0.0232555 0.00105071 1e-05
0.0233973 0.00104952 1e-05
0.0235391 0.00104831 1e-05
0.023681 0.00104706 1e-05
0.0238228 0.00104581 1e-05
0.0239647 0.00104456 1e-05
0.0241076 0.00104332 1e-05
0.0242505 0.00104204 1e-05
0.0243935 0.00104074 1e-05
0.0245364 0.00103942 1e-05
0.0246794 0.00103812 1e-05
0.0248234 0.00103681 1e-05
0.0249675 0.00103548 1e-05
0.0251115 0.00103411 1e-05
0.0252556 0.00103274 1e-05
0.0253996 0.00103137 1e-05
0.0255448 0.00103001 1e-05
0.02569 0.00102861 1e-05
0.0258351 0.00102719 1e-05
0.0259803 0.00102575 1e-05
0.0261255 0.00102433 1e-05
0.0262718 0.0010229 1e-05
0.0264181 0.00102143 1e-05
0.0265644 0.00101995 1e-05
0.0267107 0.00101846 1e-05
0.026857 0.00101697 1e-05
0.0270044 0.00101547 1e-05
0.0271519 0.00101395 1e-05
0.0272993 0.0010124 1e-05
0.0274468 0.00101084 1e-05
0.0275942 0.00100929 1e-05
0.0277428 0.00100773 1e-05
0.0278914 0.00100613 1e-05
0.0280399 0.00100452 1e-05
0.0281885 0.0010029 1e-05
0.0283371 0.00100128 1e-05
0.0284869 0.000999649 1e-05
0.0286366 0.000997988 1e-05
0.0287863 0.000996311 1e-05
0.0289361 0.000994625 1e-05
0.0290858 0.000992931 1e-05
0.0292367 0.000991231 1e-05
0.0293876 0.000989499 1e-05
0.0295385 0.000987754 1e-05
0.0296894 0.000985999 1e-05
0.0298403 0.000984234 1e-05
0.0299924 0.00098246 1e-05
0.0301445 0.000980656 1e-05
0.0302966 0.000978841 1e-05
0.0304486 0.000977014 1e-05
0.0306007 0.000975177 1e-05
0.030754 0.000973327 1e-05
0.0309072 0.00097145 1e-05
0.0310605 0.000969562 1e-05
0.0312138 0.000967661 1e-05
0.031367 0.000965749 1e-05
0.0315215 0.000963821 1e-05
0.0316759 0.000961868 1e-05
0.0318304 0.000959903 1e-05
0.0319848 0.000957925 1e-05
0.0321393 0.000955936 1e-05
0.0322949 0.000953926 1e-05
0.0324506 0.000951894 1e-05
0.0326062 0.000949849 1e-05
0.0327619 0.000947791 1e-05
0.0329175 0.000945721 1e-05
0.0330744 0.000943626 1e-05
0.0332313 0.000941512 1e-05
0.0333881 0.000939384 1e-05
0.033545 0.000937242 1e-05
[...]
POINT_DATA 12015
 FIELD attributes 1
U 3 12015 float
10.0004 	0.00731841 	0 10.0024 	0.015169 	0 10.0045 	0.0221881 	0 10.0065 	0.029163 	0 10.0085 	0.036094 	0 10.0135 	0.0463094 	0 10.0163 	0.0402089 	0 10.0207 	0.0401677 	0 10.0252 	0.0401267 	0 10.0296 	0.0400859 	0 10.0356 	0.0445467 	0 10.0384 	0.0379069 	0 10.0424 	0.0378633 	0 10.0464 	0.0378197 	0 10.0504 	0.0377761 	0 10.0545 	0.0408776 	0 10.0567 	0.0388006 	0 10.0591 	0.0401103 	0 10.0616 	0.0414217 	0 10.064 	0.0427347 	0 10.0662 	0.045193 	0 10.0677 	0.0453045 	0 10.069 	0.0465068 	0 10.0703 	0.0477103 	0 10.0717 	0.0489149 	0 10.0728 	0.0499332 	0 10.0729 	0.0499965 	0 10.0729 	0.0500598 	0 10.073 	0.0501231 	0 10.0731 	0.0501864 	0 10.0732 	0.0502401 	0 10.0737 	0.050868 	0 10.0742 	0.0514897 	0 10.0747 	0.0521119 	0 10.0752 	0.0527347 	0 10.0757 	0.0531933 	0 10.0756 	0.0534906 	0 10.0752 	0.0536822 	0 10.0749 	0.053874 	0 10.0745 	0.0540659 	0 10.074 	0.0540193 	0 10.0736 	0.0541664 	0 10.0725 	0.054145 	0 10.0714 	0.0541237 	0 10.0703 	0.0541023 	0 10.0687 	0.0538116 	0 10.0683 	0.053895 	0 10.0667 	0.0537643 	0 10.0651 	0.0536337 	0 10.0634 	0.053503 	0 10.0609 	0.0530859 	0 10.0609 	0.0531443 	0 10.0589 	0.0529537 	0 10.0568 	0.0527632 	0 10.0548 	0.0525725 	0 10.0512 	0.0520831 	0 10.0518 	0.0521421 	0 10.0495 	0.0519271 	0 10.0472 	0.051712 	0 10.0449 	0.0514968 	0 10.0402 	0.0509752 	0 10.0417 	0.0510568 	0 10.0392 	0.05084 	0 10.0366 	0.0506231 	0 10.0341 	0.0504061 	0 10.0283 	0.0498698 	0 10.0308 	0.0499825 	0 10.0281 	0.0497826 	0 10.0254 	0.0495827 	0 10.0228 	0.0493827 	0 10.0158 	0.048857 	0 10.0194 	0.0490134 	0 10.0167 	0.0488345 	0 10.0139 	0.0486557 	0 10.0112 	0.0484768 	0 10.003 	0.0479554 	0 10.0079 	0.0481599 	0 10.0051 	0.0480478 	0 10.0023 	0.0479357 	0 9.99958 	0.0478236 	0 9.99028 	0.0473822 	0 9.99644 	0.047681 	0 9.99371 	0.0476079 	0 9.99097 	0.0475347 	0 9.98823 	0.0474616 	0 9.97773 	0.0470022 	0 9.98529 	0.0473518 	0 9.98267 	0.0474915 	0 9.98005 	0.0476312 	0 9.97743 	0.0477709 	0 9.96579 	0.0475911 	0 9.97492 	0.0480937 	1.06632e-21 9.97301 	0.0481847 	7.08836e-21 9.97111 	0.0482757 	1.31103e-20 9.9692 	0.0483667 	1.91321e-20 9.95719 	0.0479588 	1.61791e-20 9.96766 	0.0482118 	1.12555e-19 9.96604 	0.0479996 	1.04571e-19 9.96442 	0.0477874 	9.65831e-20 9.96279 	0.0475752 	8.85927e-20 9.95058 	0.0469291 	-1.78796e-20 9.96099 	0.0468616 	-4.85841e-20 9.9594 	0.0464996 	-5.40398e-20 9.95781 	0.0461377 	-5.94933e-20 9.95622 	0.0457757 	-6.49445e-20 9.94412 	0.045138 	-2.52624e-20 9.95407 	0.0448638 	-2.2261e-20 9.95224 	0.0442035 	-1.5468e-20 9.95041 	0.0435431 	-8.67568e-21 9.94857 	0.0428826 	-1.88395e-21 9.93654 	0.0420137 	8.49971e-21 9.94608 	0.0416793 	-6.45268e-21 9.94397 	0.0408113 	-2.84309e-20 9.94186 	0.0399432 	-5.04118e-20 9.93975 	0.0390749 	-7.23951e-20 9.9277 	0.0379218 	-1.03612e-19 9.9367 	0.0376914 	-1.47716e-19 9.93421 	0.0368432 	-1.33134e-19 9.93172 	0.0359948 	-1.18542e-19 9.92922 	0.0351462 	-1.03941e-19 9.91709 	0.0338675 	-3.52235e-20 9.9254 	0.0337608 	4.23294e-20 9.9225 	0.0329959 	5.82815e-20 9.91959 	0.0322307 	7.42222e-20 9.91667 	0.0314653 	9.01515e-20 9.90452 	0.0301671 	4.33427e-20 9.91205 	0.0300885 	-5.78736e-20 9.90873 	0.029357 	-6.50842e-20 9.90541 	0.0286253 	-7.22773e-20 9.90207 	0.0278932 	-7.94528e-20 9.88999 	0.026614 	-3.99254e-22 9.89663 	0.0264932 	7.43854e-20 9.89287 	0.0257701 	6.33654e-20 9.8891 	0.0250467 	5.2328e-20 9.88532 	0.0243231 	4.12731e-20 9.87337 	0.0231003 	-3.31559e-20 9.87894 	0.0229156 	-9.95193e-20 9.87469 	0.0221998 	-1.25689e-19 9.87043 	0.0214837 	-1.51853e-19 9.86617 	0.0207674 	-1.78009e-19 9.85446 	0.0196266 	-1.599e-19 9.85872 	0.019377 	-1.84823e-19 9.85397 	0.0186727 	-1.7018e-19 9.84921 	0.0179682 	-1.55531e-19 9.84445 	0.0172634 	-1.40877e-19 9.83314 	0.0162165 	-9.74783e-20 9.83585 	0.0159106 	-8.22042e-20 9.83059 	0.0152223 	-6.04279e-20 9.82533 	0.0145338 	-3.86538e-20 9.82007 	0.013845 	-1.68818e-20 9.80941 	0.0128919 	2.68848e-21 9.81023 	0.0125217 	0 9.8045 	0.0118432 	0 9.79875 	0.0111645 	0 9.793 	0.0104855 	0 9.78329 	0.00962026 	0 9.78187 	0.00917113 	-1.9025e-20 9.77566 	0.00849829 	-4.13223e-20 9.76943 	0.0078251 	-6.36217e-20 9.7632 	0.00715159 	-8.59232e-20 9.7548 	0.00637813 	-1.09293e-19 9.75077 	0.0058378 	-1.1575e-19 9.74414 	0.00517536 	-1.16602e-19 9.73749 	0.00451255 	-1.17448e-19 9.73083 	0.00384939 	-1.18288e-19 9.72455 	0.00322346 	-1.19074e-19 9.72442 	0.00321132 	-1.19113e-19 9.7243 	0.00319918 	-1.19152e-19 9.72418 	0.00318704 	-1.19191e-19 9.72406 	0.0031749 	-1.19231e-19 9.72382 	0.00315748 	-1.1923e-19 9.71671 	0.00249691 	-8.51363e-20 9.7095 	0.00183113 	-5.08708e-20 9.70227 	0.00116492 	-1.6617e-20 9.69503 	0.000498286 	1.76252e-20 9.68131 	-0.000457256 	5.96107e-20 9.6796 	-0.000859899 	6.07089e-20 9.67194 	-0.00152223 	6.20317e-20 9.66427 	-0.00218502 	6.33518e-20 9.65659 	-0.00284828 	6.46692e-20 9.63624 	-0.00405255 	6.81089e-20 9.63976 	-0.00423067 	5.3759e-20 9.63168 	-0.00488939 	3.94065e-20 9.62359 	-0.0055486 	2.50525e-20 9.61549 	-0.00620832 	1.06971e-20 9.58886 	-0.00761397 	-1.12796e-21 9.5973 	-0.0076143 	-1.00904e-20 9.58883 	-0.00827077 	-2.37889e-20 9.58034 	-0.00892779 	-3.7486e-20 9.57185 	-0.00958535 	-5.11816e-20 9.53945 	-0.0111384 	-6.48938e-20 9.55239 	-0.0110135 	-6.54147e-20 9.54355 	-0.0116699 	-7.40464e-20 9.5347 	-0.0123269 	-8.26741e-20 9.52584 	-0.0129845 	-9.1298e-20 9.48831 	-0.0146281 	-1.12578e-19 9.50523 	-0.0144293 	-1.72506e-19 9.49606 	-0.0150854 	-1.61316e-19 9.48687 	-0.0157421 	-1.50141e-19 9.47767 	-0.0163995 	-1.38983e-19 9.43571 	-0.0180724 	-4.86221e-20 9.45603 	-0.0178511 	-3.14407e-20 9.44655 	-0.0185071 	-2.21277e-20 9.43705 	-0.0191637 	-1.28138e-20 9.42754 	-0.019821 	-3.49882e-21 9.38189 	-0.0214662 	0 9.40502 	-0.0212738 	0 9.39526 	-0.0219313 	0 9.38548 	-0.0225895 	0 9.37569 	-0.0232484 	0 9.3271 	-0.0248135 	0 9.35245 	-0.0247013 	2.15311e-21 9.34243 	-0.0253612 	1.08026e-20 9.3324 	-0.0260218 	1.94512e-20 9.32235 	-0.0266831 	2.80987e-20 9.27158 	-0.028114 	4.87697e-20 9.29856 	-0.0281301 	1.838e-19 9.28832 	-0.0287914 	1.87257e-19 9.27806 	-0.0294535 	1.90732e-19 9.26779 	-0.0301164 	1.94226e-19 9.21552 	-0.0313609 	4.89957e-20 9.24362 	-0.0315465 	2.65276e-20 9.23318 	-0.0322078 	1.87618e-20 9.22272 	-0.03287 	1.09949e-20 9.21095 	-0.0335436 	3.97184e-21 9.15912 	-0.0345469 	2.01549e-20 9.18509 	-0.0349553 	1.22848e-19 9.17724 	-0.0355969 	1.32e-19 9.16661 	-0.0362584 	1.33498e-19 9.15075 	-0.036931 	1.1894e-19 9.10256 	-0.0376685 	4.5893e-21 9.12519 	-0.0382953 	-1.16861e-19 9.12075 	-0.0389488 	-1.49575e-19 9.10996 	-0.0396093 	-1.61556e-19 9.09073 	-0.0402292 	-1.50889e-19 9.046 	-0.0407251 	-7.17494e-20 9.06551 	-0.0415475 	-2.09211e-19 9.06392 	-0.0422562 	-2.53163e-19 9.053 	-0.0429153 	-2.55907e-19 9.03106 	-0.0434377 	-2.03945e-19 8.98958 	-0.0437173 	-5.50868e-20 9.00622 	-0.0447124 	-2.89844e-20 9.00696 	-0.0455134 	-1.29897e-20 8.99594 	-0.046171 	-4.46927e-21 8.97188 	-0.046558 	0 8.93345 	-0.0466463 	0 8.94744 	-0.0477917 	0 8.95006 	-0.0487157 	0 8.93896 	-0.0493715 	0 8.91333 	-0.0495926 	2.29729e-21 8.87772 	-0.0495143 	6.1756e-21 8.8893 	-0.0507889 	2.48111e-21 8.8934 	-0.0518604 	0 8.88223 	-0.0525146 	0 8.85551 	-0.0525458 	2.76285e-21 8.82249 	-0.0523242 	6.64625e-21 8.83189 	-0.0537074 	2.95141e-21 8.83712 	-0.0549446 	1.54791e-21 8.82591 	-0.0555973 	9.24657e-21 8.79851 	-0.0554218 	2.85646e-20 8.76787 	-0.0550798 	5.02161e-20 8.7753 	-0.0565537 	1.97426e-19 8.78136 	-0.0579704 	3.3446e-19 8.77012 	-0.0586224 	3.3861e-19 8.7424 	-0.0582295 	1.98035e-19 8.71394 	-0.0577885 	5.08375e-20 8.7196 	-0.0593373 	2.95078e-20 8.72522 	-0.0608878 	8.1798e-21 8.71376 	-0.061498 	3.05069e-22 8.68726 	-0.0609753 	4.03161e-21 8.66077 	-0.0604522 	7.75798e-21 8.66485 	-0.0620558 	4.22534e-21 8.66888 	-0.0636611 	6.93727e-22 8.65781 	-0.0642404 	2.61112e-21 8.63311 	-0.0636573 	-1.95084e-21 8.60843 	-0.0630737 	-6.51166e-21 8.6111 	-0.064724 	-5.74041e-20 8.61372 	-0.066376 	-1.08301e-19 8.6031 	-0.0669261 	-1.09893e-19 8.58003 	-0.0662945 	-6.33503e-20 8.55698 	-0.0656623 	-1.68054e-20 8.55841 	-0.0673511 	9.9167e-20 8.55979 	-0.0690415 	2.15133e-19 8.54964 	-0.069563 	2.251e-19 8.52805 	-0.0688918 	1.28473e-19 8.50648 	-0.0682201 	3.18465e-20 8.50682 	-0.0699348 	1.85012e-20 8.50711 	-0.0716512 	5.15149e-21 8.49746 	-0.0721458 	5.11086e-22 8.47719 	-0.0714504 	5.95725e-21 8.45694 	-0.0707546 	1.14054e-20 8.45633 	-0.0724833 	4.84874e-21 8.45566 	-0.0742137 	-1.71431e-21 8.44653 	-0.0746832 	-2.41667e-20 8.42745 	-0.0739788 	-8.26331e-20 8.40838 	-0.0732738 	-1.41102e-19 8.40694 	-0.0750006 	-2.93941e-19 8.40543 	-0.076729 	-4.46774e-19 8.39683 	-0.0771753 	-4.28811e-19 8.37882 	-0.0764799 	-2.53606e-19 8.36083 	-0.075784 	-7.84032e-20 8.35864 	-0.0775037 	6.64365e-20 8.35626 	-0.0791958 	2.08035e-19 8.34786 	-0.0795922 	2.05174e-19 8.3313 	-0.0789742 	1.05629e-19 8.31427 	-0.0782968 	4.59536e-22 8.31144 	-0.0800059 	-1.03843e-19 8.30766 	-0.0815014 	-1.92728e-19 8.2994 	-0.0819074 	-2.03444e-19 8.28487 	-0.0814738 	-1.33765e-19 8.26872 	-0.0808218 	-4.32089e-20 8.26531 	-0.0825185 	-3.01646e-20 8.2604 	-0.0838201 	-1.7236e-20 8.25227 	-0.0842376 	-4.5596e-21 8.23951 	-0.0839899 	1.53605e-20 8.22417 	-0.0833681 	3.93518e-20 8.22024 	-0.0850515 	1.38665e-20 8.21443 	-0.086164 	-3.06683e-21 8.20641 	-0.0865946 	-9.79266e-21 8.1952 	-0.0865322 	-4.8246e-21 8.18058 	-0.0859445 	1.25993e-20 8.17619 	-0.0876146 	-6.79159e-21 8.16968 	-0.0885442 	-1.89295e-20 8.16178 	-0.0889893 	-2.63226e-20 8.1519 	-0.0891102 	-3.94967e-20 8.13794 	-0.0885593 	-6.46352e-20 8.13315 	-0.0902165 	6.132e-20 8.1261 	-0.0909703 	9.41626e-20 8.1183 	-0.0914313 	9.68188e-20 8.10958 	-0.0917325 	8.12773e-20 8.09622 	-0.0912206 	-2.65635e-20 8.09107 	-0.0928661 	7.96575e-20 8.08362 	-0.0934516 	9.26361e-20 8.07593 	-0.0939299 	9.61504e-20 8.0682 	-0.0944078 	9.95749e-20 8.0554 	-0.0939366 	1.12061e-20 8.04979 	-0.0954999 	-7.20771e-22 8.04221 	-0.0959965 	-4.93055e-22 8.0346 	-0.0964934 	-2.65366e-22 8.02697 	-0.0969906 	-3.77045e-23 8.01544 	-0.096715 	1.92445e-20 8.0093 	-0.098097 	0 8.0018 	-0.0986134 	0 7.99427 	-0.0991302 	0 7.98673 	-0.0996473 	0 7.97631 	-0.0995638 	1.54626e-20 7.96977 	-0.100773 	0 7.96234 	-0.10131 	0 7.95489 	-0.101848 	0 7.94742 	-0.102386 	0 7.93798 	-0.102491 	0 7.93115 	-0.103535 	0 7.92379 	-0.104095 	0 7.9164 	-0.104655 	0 7.90899 	-0.105215 	0 7.90041 	-0.105503 	-7.14767e-21 7.89337 	-0.10639 	0 7.88607 	-0.106974 	0 7.87874 	-0.107557 	0 7.87139 	-0.108141 	0 7.86355 	-0.108609 	-6.27742e-21 7.85802 	-0.10921 	0 7.8524 	-0.109681 	0 7.84676 	-0.110153 	0 7.84111 	-0.110624 	0 7.83564 	-0.11108 	0 7.83391 	-0.11122 	0 7.83217 	-0.111361 	0 7.83043 	-0.111501 	0 7.82869 	-0.111642 	0 7.82715 	-0.111744 	0 7.81967 	-0.112414 	-1.05868e-20 7.81224 	-0.11305 	-2.16557e-20 7.80478 	-0.113686 	-3.27227e-20 7.7973 	-0.114323 	-4.37879e-20 7.79085 	-0.114755 	-5.48625e-20 7.78307 	-0.115602 	-5.1457e-20 7.77567 	-0.116265 	-5.06663e-20 7.76825 	-0.116929 	-4.98718e-20 7.7608 	-0.117592 	-4.90734e-20 7.75521 	-0.117892 	-5.30861e-20 7.74714 	-0.118913 	-4.10791e-20 7.73976 	-0.119604 	-2.90486e-20 7.73235 	-0.120296 	-1.70162e-20 7.72492 	-0.120989 	-4.98168e-21 7.72017 	-0.121162 	0 7.7118 	-0.122352 	-2.00749e-21 7.70444 	-0.123073 	-7.45405e-21 7.69704 	-0.123794 	-1.28996e-20 7.68963 	-0.124516 	-1.8344e-20 7.6857 	-0.124571 	-2.37574e-20 7.67701 	-0.125926 	-6.03943e-20 7.66966 	-0.126678 	-8.29606e-20 7.66228 	-0.127431 	-1.05529e-19 7.65486 	-0.128184 	-1.281e-19 7.65173 	-0.128129 	-1.1094e-19 7.6428 	-0.129617 	-8.21933e-20 7.63538 	-0.130433 	-6.8672e-20 7.62799 	-0.131219 	-5.58192e-20 7.62127 	-0.131877 	-4.93278e-20 7.61823 	-0.131845 	-7.6899e-20 7.60931 	-0.13335 	-9.27447e-20 7.60154 	-0.134345 	-8.11748e-20 7.59415 	-0.135165 	-6.02523e-20 7.58825 	-0.135704 	-3.33712e-20 7.58513 	-0.135728 	4.37471e-21 7.57623 	-0.13725 	9.18789e-21 7.56811 	-0.13842 	8.38443e-21 7.56069 	-0.139277 	2.58365e-21 7.5556 	-0.139702 	0 7.55239 	-0.139781 	0 7.54349 	-0.141323 	0 7.53502 	-0.142665 	0 7.52758 	-0.143558 	0 7.52327 	-0.143876 	0 7.51996 	-0.144012 	0 7.51105 	-0.145574 	0 7.50221 	-0.147085 	-1.62341e-21 7.49474 	-0.148016 	-2.15561e-20 7.49119 	-0.148233 	-4.15748e-20 7.48778 	-0.148425 	-6.15961e-20 7.47886 	-0.15001 	-3.98002e-20 7.46988 	-0.151596 	-1.7996e-20 7.46285 	-0.15253 	3.88988e-21 7.45933 	-0.152779 	8.48537e-21 7.45581 	-0.153028 	1.30807e-20 7.44686 	-0.154638 	4.96193e-20 7.43786 	-0.156248 	8.61557e-20 7.43128 	-0.157214 	9.85078e-20 7.42764 	-0.157521 	8.17645e-20 7.42399 	-0.157828 	6.50183e-20 7.41501 	-0.159464 	3.77787e-20 7.40598 	-0.1611 	1.05284e-20 7.39982 	-0.1621 	6.42841e-21 7.39605 	-0.162465 	1.69045e-20 7.39227 	-0.16283 	2.73821e-20 7.38326 	-0.164494 	9.84429e-20 7.37419 	-0.166159 	1.69508e-19 7.36843 	-0.167194 	1.70328e-19 7.36452 	-0.167618 	1.00082e-19 7.36059 	-0.168041 	2.98344e-20 7.35153 	-0.169735 	2.0361e-20 7.34268 	-0.171385 	1.16039e-20 7.33724 	-0.172429 	1.21915e-20 7.33299 	-0.172985 	2.11295e-20 7.32891 	-0.173466 	3.1327e-20 7.3198 	-0.175193 	1.00515e-19 7.31175 	-0.176725 	1.47658e-19 7.30618 	-0.177815 	1.44893e-19 7.30142 	-0.178571 	1.02235e-19 7.29718 	-0.179112 	3.38986e-20 7.288 	-0.180871 	2.47395e-20 7.28073 	-0.18229 	1.54861e-20 7.27503 	-0.183428 	6.15437e-21 7.26975 	-0.184382 	0 7.26533 	-0.184981 	0 7.25608 	-0.186775 	0 7.24956 	-0.188086 	0 7.24372 	-0.189271 	0 7.23793 	-0.190421 	0 7.23332 	-0.191079 	0 7.22414 	-0.192882 	0 7.2182 	-0.194115 	0 7.21221 	-0.195347 	0 7.20618 	-0.19658 	0 7.2011 	-0.19741 	1.37377e-20 7.19269 	-0.1991 	2.90073e-21 7.18658 	-0.200381 	1.25156e-20 7.18043 	-0.201662 	2.21336e-20 7.17424 	-0.202943 	3.17547e-20 7.16861 	-0.203977 	4.3653e-20 7.16095 	-0.205556 	8.77773e-20 7.15467 	-0.206886 	9.22263e-20 7.14835 	-0.208215 	9.66455e-20 7.14198 	-0.209545 	1.01035e-19 7.1358 	-0.210781 	8.27973e-20 7.13136 	-0.211714 	9.66326e-20 7.12744 	-0.212553 	8.82432e-20 7.1235 	-0.213393 	7.98425e-20 7.11955 	-0.214232 	7.14305e-20 7.11574 	-0.215037 	6.33539e-20 7.11306 	-0.215581 	5.82391e-20 7.11038 	-0.216126 	5.31205e-20 7.10769 	-0.216671 	4.7998e-20 7.10499 	-0.217216 	4.28716e-20 7.10278 	-0.217706 	4.36691e-20 7.09571 	-0.219186 	4.16432e-20 7.08886 	-0.220611 	4.01092e-20 7.08196 	-0.222036 	3.85679e-20 7.07501 	-0.223461 	3.70193e-20 7.06977 	-0.224695 	4.12149e-20 7.06178 	-0.226361 	3.45956e-20 7.05473 	-0.227837 	3.34666e-20 7.04762 	-0.229312 	3.23303e-20 7.04046 	-0.230787 	3.11865e-20 7.0363 	-0.231935 	4.28338e-20 7.02736 	-0.233788 	5.44707e-20 7.02009 	-0.235313 	4.74268e-20 7.01277 	-0.236838 	4.0394e-20 7.00543 	-0.238358 	3.31614e-20 7.0023 	-0.239426 	4.08604e-21 6.99271 	-0.241404 	2.96564e-22 6.98489 	-0.243038 	-1.83236e-22 6.97734 	-0.244612 	-7.40241e-23 6.97111 	-0.246041 	0 6.96774 	-0.247165 	0 6.95792 	-0.249184 	0 6.94908 	-0.251011 	-7.22397e-21 6.94129 	-0.252634 	-2.21122e-20 6.93617 	-0.253972 	-3.43437e-20 6.93254 	-0.255151 	-4.50969e-20 6.92249 	-0.257213 	-3.16176e-20 6.9126 	-0.259233 	-1.77642e-20 6.90455 	-0.260904 	-9.34916e-22 6.90056 	-0.262151 	7.28523e-21 6.89665 	-0.263386 	1.52504e-20 6.88635 	-0.26549 	8.4781e-21 6.87598 	-0.267594 	1.71127e-21 6.86836 	-0.269289 	1.30582e-20 6.86421 	-0.270577 	3.59515e-20 6.86002 	-0.271866 	5.88446e-20 6.84947 	-0.274012 	3.47909e-20 6.83883 	-0.276158 	1.0732e-20 6.83153 	-0.277907 	-2.4286e-21 6.82709 	-0.279247 	-6.05684e-21 6.8226 	-0.280587 	-9.68704e-21 6.81177 	-0.282773 	-6.56361e-20 6.8009 	-0.284956 	-1.21201e-19 6.79407 	-0.286726 	-1.29129e-19 6.78912 	-0.288152 	-9.0218e-20 6.78432 	-0.289542 	-4.63695e-20 6.77321 	-0.291768 	-9.11944e-20 6.76357 	-0.293841 	-1.16962e-19 6.75644 	-0.295654 	-1.10592e-19 6.75026 	-0.297289 	-8.50224e-20 6.74514 	-0.298727 	-3.83558e-20 6.73374 	-0.30099 	-8.54398e-20 6.72533 	-0.30295 	-8.95225e-20 6.71789 	-0.304806 	-7.8923e-20 6.71046 	-0.30665 	-6.6931e-20 6.70501 	-0.308134 	-1.40087e-20 6.69383 	-0.310383 	-1.1043e-20 6.68613 	-0.31228 	-7.81902e-21 6.67838 	-0.314177 	-4.59723e-21 6.67055 	-0.316073 	-1.37762e-21 6.66386 	-0.317759 	0 6.65396 	-0.319887 	0 6.64593 	-0.321823 	0 6.63784 	-0.323759 	0 6.62968 	-0.325694 	0 6.62165 	-0.327595 	0 6.61974 	-0.328006 	-3.93131e-22 6.61813 	-0.328386 	-1.05754e-21 6.61653 	-0.328766 	-1.72202e-21 6.61492 	-0.329146 	-2.38657e-21 6.61334 	-0.329521 	-3.04157e-21 6.60619 	-0.33111 	-5.35665e-21 6.59899 	-0.332699 	-7.67027e-21 6.59174 	-0.334288 	-9.98241e-21 6.58445 	-0.335876 	-1.22931e-20 6.578 	-0.337347 	-1.45436e-20 6.56843 	-0.339482 	-5.10639e-22 6.55918 	-0.341483 	2.60014e-21 6.54987 	-0.343484 	5.73374e-21 6.54047 	-0.345484 	8.89025e-21 6.53305 	-0.34722 	-1.81739e-20 6.52255 	-0.349554 	-9.50188e-21 6.5129 	-0.351587 	-6.04046e-22 6.50318 	-0.353619 	8.29148e-21 6.49405 	-0.355565 	1.62163e-20 6.48675 	-0.35727 	2.13888e-20 6.4758 	-0.359635 	1.49552e-20 6.46521 	-0.361864 	1.20116e-20 6.45507 	-0.363924 	1.33591e-20 6.44674 	-0.365747 	2.43961e-20 6.43903 	-0.367483 	3.89745e-20 6.42766 	-0.369871 	4.7077e-20 6.41619 	-0.372258 	5.51764e-20 6.40603 	-0.374319 	4.98092e-20 6.39798 	-0.376083 	2.59598e-20 6.38985 	-0.377847 	2.09746e-21 6.37803 	-0.380254 	2.2818e-20 6.36611 	-0.382661 	4.35277e-20 6.35619 	-0.384772 	4.05594e-20 6.3477 	-0.38656 	9.68365e-21 6.33915 	-0.388348 	-2.12018e-20 6.32687 	-0.390772 	-1.35915e-20 6.31509 	-0.393122 	-5.36056e-21 6.30522 	-0.395229 	4.95901e-21 6.29587 	-0.397163 	9.77658e-21 6.28687 	-0.398971 	1.05736e-20 6.27411 	-0.401407 	1.23052e-20 6.26324 	-0.403604 	1.36633e-20 6.25292 	-0.405725 	1.49071e-20 6.24252 	-0.407844 	1.61595e-20 6.23296 	-0.409697 	2.14403e-20 6.2205 	-0.412048 	1.6983e-20 6.2098 	-0.414178 	1.25161e-20 6.19901 	-0.416308 	8.05391e-21 6.18813 	-0.418436 	3.59639e-21 6.17737 	-0.420508 	0 6.17404 	-0.421119 	0 6.1711 	-0.421683 	0 6.16815 	-0.422247 	0 6.1652 	-0.422812 	0 6.1623 	-0.423365 	0 6.15439 	-0.42494 	0 6.14644 	-0.426515 	0 6.13844 	-0.42809 	0 6.13039 	-0.429664 	0 6.12238 	-0.431109 	-4.22247e-21 6.1117 	-0.433408 	1.8379e-21 6.10051 	-0.435546 	5.65955e-21 6.08923 	-0.437683 	9.47714e-21 6.07787 	-0.43982 	1.32907e-20 6.06661 	-0.441647 	2.66268e-20 6.05582 	-0.444086 	4.93131e-20 6.04434 	-0.446294 	5.75981e-20 6.03256 	-0.448425 	6.10306e-20 6.02081 	-0.450381 	5.21612e-20 6.00905 	-0.452191 	3.29134e-20 5.99776 	-0.454615 	3.54291e-20 5.98637 	-0.457039 	3.79515e-20 5.97413 	-0.45912 	3.03813e-20 5.96194 	-0.460916 	1.21952e-20 5.94966 	-0.462713 	-5.99235e-21 5.93786 	-0.465116 	-3.5379e-20 5.92595 	-0.467519 	-6.47579e-20 5.91394 	-0.46963 	-7.13691e-20 5.90122 	-0.471407 	-4.76263e-20 5.88841 	-0.473183 	-2.38808e-20 5.87608 	-0.47556 	1.38318e-20 5.8637 	-0.477819 	3.53721e-20 5.85134 	-0.479875 	2.84777e-20 5.8386 	-0.481825 	9.10869e-21 5.82525 	-0.483575 	-3.38999e-20 5.81238 	-0.485919 	-8.25823e-20 5.79956 	-0.487942 	-5.96329e-20 5.78665 	-0.489964 	-3.66257e-20 5.77365 	-0.491985 	-1.35604e-20 5.76016 	-0.493862 	2.73161e-20 5.75315 	-0.495014 	2.94661e-20 5.74617 	-0.496053 	3.27327e-20 5.73916 	-0.497093 	3.60039e-20 5.73212 	-0.498132 	3.92799e-20 5.72531 	-0.499133 	4.24432e-20 5.71908 	-0.50009 	4.6933e-20 5.71282 	-0.501047 	5.14315e-20 5.70655 	-0.502003 	5.59387e-20 5.70026 	-0.50296 	6.04546e-20 5.69406 	-0.503816 	4.76336e-20 5.68101 	-0.505899 	4.04471e-20 5.66761 	-0.507849 	3.67074e-20 5.65413 	-0.509799 	3.2948e-20 5.64055 	-0.511748 	2.91686e-20 5.62723 	-0.513381 	3.71871e-20 5.61397 	-0.515591 	7.56988e-20 5.60021 	-0.517591 	9.32046e-20 5.58616 	-0.519487 	1.00441e-19 5.57225 	-0.52117 	6.91265e-20 5.55838 	-0.522738 	1.68219e-20 5.54456 	-0.524887 	1.23336e-20 5.53064 	-0.527034 	7.81879e-21 5.51631 	-0.528844 	-2.07035e-22 5.50196 	-0.530346 	-1.27069e-20 5.48751 	-0.531849 	-2.52382e-20 5.47313 	-0.533929 	-6.55737e-20 5.45865 	-0.535992 	-1.03809e-19 5.44442 	-0.537735 	-1.00859e-19 5.42965 	-0.53925 	-8.29105e-20 5.41462 	-0.540679 	-5.93578e-