# vtk DataFile Version 2.0
track0
ASCII
DATASET POLYDATA
POINTS 12015 float
-0.0205 0.001 1e-05
-0.0202034 0.00100022 1e-05
-0.0199069 0.00100067 1e-05
-0.0196103 0.00100132 1e-05
-0.0193137 0.00100219 1e-05
-0.0190172 0.00100326 1e-05
-0.0187132 0.00100466 1e-05
-0.0184093 0.00100588 1e-05
-0.0181054 0.0010071 1e-05
-0.0178015 0.00100832 1e-05
-0.0174976 0.00100953 1e-05
-0.0172058 0.00101083 1e-05
-0.016914 0.00101193 1e-05
-0.0166222 0.00101303 1e-05
-0.0163305 0.00101413 1e-05
-0.0160387 0.00101523 1e-05
-0.0157586 0.00101636 1e-05
-0.0154784 0.00101745 1e-05
-0.0151983 0.00101856 1e-05
-0.0149182 0.00101972 1e-05
-0.0146381 0.0010209 1e-05
-0.0143747 0.00102209 1e-05
-0.0141113 0.00102327 1e-05
-0.0138479 0.00102449 1e-05
-0.0135845 0.00102574 1e-05
-0.0133621 0.00102682 1e-05
-0.0133484 0.00102689 1e-05
-0.0133346 0.00102695 1e-05
-0.0133209 0.00102702 1e-05
-0.0133072 0.00102709 1e-05
-0.0132934 0.00102716 1e-05
-0.0130353 0.00102845 1e-05
-0.0127771 0.00102975 1e-05
-0.0125189 0.00103107 1e-05
-0.0122607 0.0010324 1e-05
-0.0120025 0.00103376 1e-05
-0.0117547 0.00103506 1e-05
-0.0115068 0.00103638 1e-05
-0.0112589 0.0010377 1e-05
-0.0110111 0.00103903 1e-05
-0.0107632 0.00104036 1e-05
-0.0105252 0.00104163 1e-05
-0.0102873 0.00104291 1e-05
-0.0100493 0.00104419 1e-05
-0.00981133 0.00104547 1e-05
-0.00957337 0.00104675 1e-05
-0.00934491 0.00104797 1e-05
-0.00911645 0.00104919 1e-05
-0.00888799 0.00105041 1e-05
-0.00865954 0.00105163 1e-05
-0.00843108 0.00105285 1e-05
-0.00821175 0.001054 1e-05
-0.00799242 0.00105516 1e-05
-0.00777309 0.00105632 1e-05
-0.00755376 0.00105747 1e-05
-0.00733443 0.00105861 1e-05
-0.00712387 0.0010597 1e-05
-0.0069133 0.0010608 1e-05
-0.00670273 0.00106188 1e-05
-0.00649216 0.00106297 1e-05
-0.0062816 0.00106405 1e-05
-0.00607944 0.00106507 1e-05
-0.00587729 0.0010661 1e-05
-0.00567514 0.00106713 1e-05
-0.00547298 0.00106815 1e-05
-0.00527083 0.00106916 1e-05
-0.00507675 0.00107013 1e-05
-0.00488267 0.00107109 1e-05
-0.0046886 0.00107206 1e-05
-0.00449452 0.00107302 1e-05
-0.00430044 0.00107397 1e-05
-0.00411412 0.00107488 1e-05
-0.0039278 0.00107579 1e-05
-0.00374147 0.0010767 1e-05
-0.00355515 0.00107761 1e-05
-0.00336883 0.00107851 1e-05
-0.00318995 0.00107937 1e-05
-0.00301107 0.00108023 1e-05
-0.00283219 0.00108109 1e-05
-0.00265331 0.00108194 1e-05
-0.00247443 0.0010828 1e-05
-0.0023027 0.00108361 1e-05
-0.00213097 0.00108443 1e-05
-0.00195924 0.00108525 1e-05
-0.0017875 0.00108607 1e-05
-0.00161577 0.00108688 1e-05
-0.0014509 0.00108766 1e-05
-0.00128603 0.00108844 1e-05
-0.00112116 0.00108923 1e-05
-0.000956289 0.00109001 1e-05
-0.000791418 0.0010908 1e-05
-0.000633135 0.00109156 1e-05
-0.000474851 0.00109232 1e-05
-0.000316567 0.00109309 1e-05
-0.000158284 0.00109385 1e-05
0 0.00109462 1e-05
0.000105677 0.00109513 1e-05
0.000211355 0.00109564 1e-05
0.000317032 0.00109615 1e-05
0.00042271 0.00109666 1e-05
0.000528387 0.00109716 1e-05
0.000634886 0.00109766 1e-05
0.000741385 0.00109816 1e-05
0.000847885 0.00109866 1e-05
0.000954384 0.00109916 1e-05
0.00106088 0.00109965 1e-05
0.00116821 0.00110013 1e-05
0.00127554 0.00110062 1e-05
0.00138286 0.00110109 1e-05
0.00149019 0.00110156 1e-05
0.00159752 0.00110203 1e-05
0.00170568 0.00110248 1e-05
0.00181384 0.00110294 1e-05
0.001922 0.00110338 1e-05
0.00203016 0.00110381 1e-05
0.00213833 0.00110424 1e-05
0.00224733 0.00110466 1e-05
0.00235633 0.00110507 1e-05
0.00246533 0.00110547 1e-05
0.00257434 0.00110587 1e-05
0.00268334 0.00110625 1e-05
0.00279319 0.00110663 1e-05
0.00290304 0.001107 1e-05
0.00301289 0.00110737 1e-05
0.00312274 0.00110773 1e-05
0.00323259 0.00110807 1e-05
0.00334329 0.00110841 1e-05
0.003454 0.00110875 1e-05
0.0035647 0.00110908 1e-05
0.0036754 0.00110939 1e-05
0.00378611 0.00110971 1e-05
0.00389767 0.00111001 1e-05
0.00400924 0.00111031 1e-05
0.0041208 0.0011106 1e-05
0.00423237 0.00111088 1e-05
0.00434393 0.00111115 1e-05
0.00445636 0.00111142 1e-05
0.00456879 0.00111168 1e-05
0.00468123 0.00111193 1e-05
0.00479366 0.00111217 1e-05
0.00490609 0.00111241 1e-05
0.0050194 0.00111264 1e-05
0.0051327 0.00111286 1e-05
0.00524601 0.00111307 1e-05
0.00535932 0.00111328 1e-05
0.00547262 0.00111348 1e-05
0.00558681 0.00111367 1e-05
0.005701 0.00111385 1e-05
0.00581518 0.00111403 1e-05
0.00592937 0.0011142 1e-05
0.00604356 0.00111436 1e-05
0.00615863 0.00111451 1e-05
0.00627371 0.00111466 1e-05
0.00638878 0.0011148 1e-05
0.00650386 0.00111493 1e-05
0.00661893 0.00111505 1e-05
0.0067349 0.00111517 1e-05
0.00685087 0.00111527 1e-05
0.00696684 0.00111537 1e-05
0.00708281 0.00111547 1e-05
0.00719878 0.00111555 1e-05
0.00731485 0.00111563 1e-05
0.00743093 0.0011157 1e-05
0.007547 0.00111576 1e-05
0.00766308 0.00111581 1e-05
0.00777258 0.00111586 1e-05
0.00777469 0.00111586 1e-05
0.0077768 0.00111586 1e-05
0.00777891 0.00111586 1e-05
0.00778102 0.00111586 1e-05
0.00778313 0.00111586 1e-05
0.00790091 0.0011159 1e-05
0.00801869 0.00111593 1e-05
0.00813647 0.00111595 1e-05
0.00825425 0.00111596 1e-05
0.00837203 0.00111597 1e-05
0.00849073 0.00111597 1e-05
0.00860942 0.00111595 1e-05
0.00872812 0.00111594 1e-05
0.00884682 0.00111591 1e-05
0.00896551 0.00111587 1e-05
0.00908513 0.00111582 1e-05
0.00920475 0.00111577 1e-05
0.00932437 0.00111571 1e-05
0.00944398 0.00111564 1e-05
0.0095636 0.00111556 1e-05
0.00968415 0.00111547 1e-05
0.0098047 0.00111537 1e-05
0.00992525 0.00111527 1e-05
0.0100458 0.00111516 1e-05
0.0101663 0.00111504 1e-05
0.0102878 0.00111489 1e-05
0.0104093 0.00111475 1e-05
0.0105308 0.00111461 1e-05
0.0106523 0.00111445 1e-05
0.0107738 0.00111428 1e-05
0.0108962 0.00111409 1e-05
0.0110186 0.00111391 1e-05
0.0111411 0.00111371 1e-05
0.0112635 0.00111351 1e-05
0.0113859 0.0011133 1e-05
0.0115093 0.00111306 1e-05
0.0116327 0.00111283 1e-05
0.0117561 0.00111259 1e-05
0.0118795 0.00111234 1e-05
0.0120028 0.00111208 1e-05
0.0121272 0.00111179 1e-05
0.0122515 0.00111151 1e-05
0.0123759 0.00111122 1e-05
0.0125002 0.00111092 1e-05
0.0126245 0.00111061 1e-05
0.0127498 0.00111028 1e-05
0.0128752 0.00110995 1e-05
0.0130005 0.00110961 1e-05
0.0131258 0.00110926 1e-05
0.0132511 0.0011089 1e-05
0.0133774 0.00110852 1e-05
0.0135036 0.00110814 1e-05
0.0136299 0.00110775 1e-05
0.0137562 0.00110734 1e-05
0.0138825 0.00110693 1e-05
0.0140098 0.0011065 1e-05
0.014137 0.00110607 1e-05
0.0142643 0.00110562 1e-05
0.0143915 0.00110517 1e-05
0.0145188 0.00110471 1e-05
0.0146471 0.00110422 1e-05
0.0147753 0.00110373 1e-05
0.0149036 0.00110324 1e-05
0.0150318 0.00110273 1e-05
0.0151601 0.00110221 1e-05
0.0152893 0.00110168 1e-05
0.0154186 0.00110113 1e-05
0.0155478 0.00110058 1e-05
0.0156771 0.00110002 1e-05
0.0158063 0.00109945 1e-05
0.0159366 0.00109886 1e-05
0.0160668 0.00109827 1e-05
0.0161971 0.00109766 1e-05
0.0163274 0.00109704 1e-05
0.0164576 0.00109641 1e-05
0.0165889 0.00109578 1e-05
0.0167201 0.00109512 1e-05
0.0168514 0.00109446 1e-05
0.0169827 0.00109379 1e-05
0.0171139 0.00109311 1e-05
0.0172462 0.00109241 1e-05
0.0173785 0.00109171 1e-05
0.0175108 0.00109099 1e-05
0.0176431 0.00109026 1e-05
0.0177754 0.00108952 1e-05
0.0179087 0.00108878 1e-05
0.018042 0.00108802 1e-05
0.0181753 0.00108724 1e-05
0.0183087 0.00108645 1e-05
0.018442 0.00108566 1e-05
0.0185763 0.00108486 1e-05
0.0187107 0.00108405 1e-05
0.018845 0.00108321 1e-05
0.0189794 0.00108236 1e-05
0.0191137 0.00108152 1e-05
0.0192491 0.00108067 1e-05
0.0193845 0.00107979 1e-05
0.0195199 0.0010789 1e-05
0.0196553 0.001078 1e-05
0.0197907 0.00107709 1e-05
0.0199272 0.00107619 1e-05
0.0200636 0.00107526 1e-05
0.0202001 0.00107431 1e-05
0.0203365 0.00107335 1e-05
0.020473 0.00107239 1e-05
0.0206105 0.00107143 1e-05
0.020748 0.00107044 1e-05
0.0208855 0.00106943 1e-05
0.021023 0.00106841 1e-05
0.0211606 0.0010674 1e-05
0.0212991 0.00106638 1e-05
0.0214377 0.00106534 1e-05
0.0215763 0.00106427 1e-05
0.0217149 0.0010632 1e-05
0.0218535 0.00106212 1e-05
0.0219931 0.00106105 1e-05
0.0221328 0.00105995 1e-05
0.0222724 0.00105883 1e-05
0.0224121 0.00105769 1e-05
0.0225517 0.00105656 1e-05
0.0226925 0.00105543 1e-05
0.0228332 0.00105428 1e-05
0.022974 0.00105309 1e-05
0.0231147 0.0010519 1e-05
0.0232555 0.00105071 1e-05
0.0233973 0.00104952 1e-05
0.0235391 0.00104831 1e-05
0.023681 0.00104706 1e-05
0.0238228 0.00104581 1e-05
0.0239647 0.00104456 1e-05
0.0241076 0.00104332 1e-05
0.0242505 0.00104204 1e-05
0.0243935 0.00104074 1e-05
0.0245364 0.00103942 1e-05
0.0246794 0.00103812 1e-05
0.0248234 0.00103681 1e-05
0.0249675 0.00103548 1e-05
0.0251115 0.00103411 1e-05
0.0252556 0.00103274 1e-05
0.0253996 0.00103137 1e-05
0.0255448 0.00103001 1e-05
0.02569 0.00102861 1e-05
0.0258351 0.00102719 1e-05
0.0259803 0.00102575 1e-05
0.0261255 0.00102433 1e-05
0.0262718 0.0010229 1e-05
0.0264181 0.00102143 1e-05
0.0265644 0.00101995 1e-05
0.0267107 0.00101846 1e-05
0.026857 0.00101697 1e-05
0.0270044 0.00101547 1e-05
0.0271519 0.00101395 1e-05
0.0272993 0.0010124 1e-05
0.0274468 0.00101084 1e-05
0.0275942 0.00100929 1e-05
0.0277428 0.00100773 1e-05
0.0278914 0.00100613 1e-05
0.0280399 0.00100452 1e-05
0.0281885 0.0010029 1e-05
0.0283371 0.00100128 1e-05
0.0284869 0.000999649 1e-05
0.0286366 0.000997988 1e-05
0.0287863 0.000996311 1e-05
0.0289361 0.000994625 1e-05
0.0290858 0.000992931 1e-05
0.0292367 0.000991231 1e-05
0.0293876 0.000989499 1e-05
0.0295385 0.000987754 1e-05
0.0296894 0.000985999 1e-05
0.0298403 0.000984234 1e-05
0.0299924 0.00098246 1e-05
0.0301445 0.000980656 1e-05
0.0302966 0.000978841 1e-05
0.0304486 0.000977014 1e-05
0.0306007 0.000975177 1e-05
0.030754 0.000973327 1e-05
0.0309072 0.00097145 1e-05
0.0310605 0.000969562 1e-05
0.0312138 0.000967661 1e-05
0.031367 0.000965749 1e-05
0.0315215 0.000963821 1e-05
0.0316759 0.000961868 1e-05
0.0318304 0.000959903 1e-05
0.0319848 0.000957925 1e-05
0.0321393 0.000955936 1e-05
0.0322949 0.000953926 1e-05
0.0324506 0.000951894 1e-05
0.0326062 0.000949849 1e-05
0.0327619 0.000947791 1e-05
0.0329175 0.000945721 1e-05
0.0330744 0.000943626 1e-05
0.0332313 0.000941512 1e-05
0.0333881 0.000939384 1e-05
0.033545 0.000937242 1e-05
[...]
POINT_DATA 12015
 FIELD attributes 2
p 1 12015 float
-5.6596 -5.65888 -5.65526 -5.65157 -5.64779 -5.63941 -5.65326 -5.66822 -5.68319 -5.69816 -5.72257 -5.74433 -5.77425 -5.80418 -5.8341 -5.86683 -5.88248 -5.90416 -5.92585 -5.94754 -5.97085 -5.98971 -6.01058 -6.03146 -6.05234 -6.06997 -6.07106 -6.07214 -6.07323 -6.07431 -6.0754 -6.09703 -6.11867 -6.14031 -6.16194 -6.18331 -6.20204 -6.22057 -6.23911 -6.25765 -6.27562 -6.2912 -6.3065 -6.3218 -6.3371 -6.35185 -6.36557 -6.37903 -6.3925 -6.40597 -6.41899 -6.43162 -6.44398 -6.45635 -6.46872 -6.48066 -6.49235 -6.50374 -6.51513 -6.52652 -6.53748 -6.54831 -6.55885 -6.56939 -6.57993 -6.59011 -6.60026 -6.61012 -6.61997 -6.62983 -6.63936 -6.64894 -6.65828 -6.66763 -6.67698 -6.68612 -6.69529 -6.70412 -6.71295 -6.72178 -6.73041 -6.7393 -6.74827 -6.75725 -6.76622 -6.77547 -6.78497 -6.7941 -6.80323 -6.81236 -6.82151 -6.83157 -6.84296 -6.85434 -6.86573 -6.87784 -6.8893 -6.90231 -6.91532 -6.92832 -6.94094 -6.95243 -6.96364 -6.97485 -6.98605 -6.99612 -7.00451 -7.01359 -7.02266 -7.03174 -7.04132 -7.04989 -7.05867 -7.06745 -7.07623 -7.08505 -7.09354 -7.10092 -7.10831 -7.11569 -7.1221 -7.12919 -7.13493 -7.14066 -7.1464 -7.15098 -7.15688 -7.16168 -7.16649 -7.17129 -7.1751 -7.18009 -7.18417 -7.18824 -7.19232 -7.19558 -7.19958 -7.20284 -7.2061 -7.20936 -7.21204 -7.21508 -7.21757 -7.22007 -7.22256 -7.22471 -7.22708 -7.2291 -7.23112 -7.23315 -7.23498 -7.23706 -7.23891 -7.24076 -7.24262 -7.24437 -7.24628 -7.24805 -7.24982 -7.25159 -7.25332 -7.25507 -7.25676 -7.25845 -7.26014 -7.26173 -7.26176 -7.26179 -7.26182 -7.26185 -7.26189 -7.26355 -7.26523 -7.2669 -7.26857 -7.2704 -7.2719 -7.27359 -7.27528 -7.27696 -7.27905 -7.28037 -7.28213 -7.28389 -7.28565 -7.28812 -7.28927 -7.29116 -7.29305 -7.29494 -7.29791 -7.29887 -7.30089 -7.30291 -7.30494 -7.30838 -7.30914 -7.31126 -7.31339 -7.31551 -7.31939 -7.31996 -7.3222 -7.32443 -7.32666 -7.33098 -7.33142 -7.33378 -7.33614 -7.33851 -7.34322 -7.34358 -7.34607 -7.34857 -7.35106 -7.35612 -7.35644 -7.35906 -7.36169 -7.36432 -7.36965 -7.36998 -7.37274 -7.37549 -7.37833 -7.38381 -7.38439 -7.3871 -7.38998 -7.39321 -7.3986 -7.39953 -7.40214 -7.40516 -7.40874 -7.41402 -7.4153 -7.41787 -7.42102 -7.42489 -7.43006 -7.43169 -7.43426 -7.43752 -7.44165 -7.44671 -7.44866 -7.45126 -7.45466 -7.45897 -7.46393 -7.4662 -7.46888 -7.47239 -7.47686 -7.48172 -7.48428 -7.48706 -7.49068 -7.49527 -7.50006 -7.50289 -7.50579 -7.50952 -7.5142 -7.51892 -7.522 -7.52508 -7.52895 -7.53362 -7.5383 -7.54161 -7.54492 -7.54889 -7.55353 -7.55818 -7.56171 -7.56525 -7.56932 -7.57392 -7.57852 -7.58226 -7.586 -7.59015 -7.59471 -7.59927 -7.60318 -7.6071 -7.61132 -7.61583 -7.62035 -7.6244 -7.62845 -7.63272 -7.63721 -7.64171 -7.64584 -7.64998 -7.65431 -7.6588 -7.6633 -7.6675 -7.67172 -7.6761 -7.6806 -7.68512 -7.68938 -7.69368 -7.6981 -7.70261 -7.70715 -7.71146 -7.71582 -7.72027 -7.72479 -7.72934 -7.73369 -7.73809 -7.74256 -7.74709 -7.75166 -7.75602 -7.76045 -7.76494 -7.76946 -7.77404 -7.7784 -7.78286 -7.78735 -7.79186 -7.79644 -7.80079 -7.80527 -7.80975 -7.81423 -7.8188 -7.82315 -7.82761 -7.83208 -7.83654 -7.84107 -7.84541 -7.84984 -7.85428 -7.85871 -7.8632 -7.86751 -7.8719 -7.8763 -7.88069 -7.88512 -7.8894 -7.89374 -7.89807 -7.90241 -7.90677 -7.911 -7.91527 -7.91954 -7.9238 -7.92808 -7.9313 -7.93454 -7.93777 -7.94101 -7.94414 -7.9451 -7.94606 -7.94703 -7.94799 -7.94896 -7.95304 -7.95712 -7.96121 -7.96529 -7.96939 -7.97336 -7.97733 -7.9813 -7.98527 -7.98926 -7.99311 -7.99696 -8.0008 -8.00465 -8.00851 -8.01224 -8.01593 -8.01963 -8.02333 -8.02703 -8.03061 -8.03412 -8.03764 -8.04116 -8.04466 -8.04808 -8.0514 -8.05472 -8.05803 -8.06133 -8.06455 -8.06769 -8.0708 -8.07389 -8.07696 -8.07997 -8.08291 -8.08579 -8.08863 -8.09144 -8.09422 -8.09695 -8.09957 -8.10212 -8.10465 -8.10717 -8.10967 -8.11201 -8.11423 -8.11646 -8.11869 -8.12092 -8.12294 -8.12483 -8.12671 -8.12862 -8.13053 -8.13223 -8.13375 -8.13527 -8.13682 -8.13838 -8.13974 -8.14086 -8.14198 -8.14315 -8.14433 -8.14531 -8.14601 -8.14671 -8.14748 -8.14824 -8.14879 -8.14908 -8.14933 -8.14967 -8.14993 -8.15003 -8.14992 -8.14969 -8.14956 -8.14928 -8.14889 -8.14837 -8.14762 -8.14699 -8.14612 -8.14519 -8.14425 -8.14295 -8.14176 -8.14027 -8.13878 -8.13729 -8.13549 -8.13364 -8.13154 -8.12945 -8.12737 -8.12507 -8.1225 -8.11977 -8.11705 -8.11432 -8.11152 -8.10951 -8.10743 -8.10536 -8.10328 -8.1013 -8.09997 -8.09865 -8.09733 -8.09601 -8.09463 -8.09063 -8.08657 -8.08251 -8.07845 -8.0742 -8.06963 -8.06481 -8.06 -8.05519 -8.05002 -8.04487 -8.03927 -8.03366 -8.02806 -8.02191 -8.01607 -8.00973 -8.0033 -7.99668 -7.98967 -7.98298 -7.976 -7.9687 -7.961 -7.95307 -7.9455 -7.93786 -7.92965 -7.92079 -7.91192 -7.90342 -7.89492 -7.88573 -7.87586 -7.866 -7.85653 -7.84706 -7.83689 -7.826 -7.81511 -7.80461 -7.79412 -7.78288 -7.77098 -7.75903 -7.74748 -7.73564 -7.72331 -7.71062 -7.69756 -7.68492 -7.67166 -7.65819 -7.64471 -7.63049 -7.6166 -7.60196 -7.58732 -7.57269 -7.55762 -7.54219 -7.52633 -7.51048 -7.49464 -7.47872 -7.4755 -7.4722 -7.4689 -7.46561 -7.46236 -7.44867 -7.43499 -7.42131 -7.40764 -7.3937 -7.37576 -7.35755 -7.33934 -7.32114 -7.30229 -7.28342 -7.2639 -7.24438 -7.22465 -7.20429 -7.18411 -7.16362 -7.14276 -7.12126 -7.09952 -7.07797 -7.05644 -7.03411 -7.01096 -6.98782 -6.96488 -6.94195 -6.91819 -6.89361 -6.86904 -6.84468 -6.8201 -6.79479 -6.76907 -6.74303 -6.71723 -6.69068 -6.6639 -6.63713 -6.6097 -6.58213 -6.55385 -6.52558 -6.49733 -6.46893 -6.46121 -6.45334 -6.44547 -6.43759 -6.42987 -6.40804 -6.3862 -6.36438 -6.34256 -6.32044 -6.28954 -6.25839 -6.22726 -6.19614 -6.16427 -6.13211 -6.09958 -6.06694 -6.03389 -6.00048 -5.9668 -5.93314 -5.8989 -5.86397 -5.82905 -5.79386 -5.75868 -5.72284 -5.68642 -5.64999 -5.6133 -5.57633 -5.53888 -5.50128 -5.46337 -5.42519 -5.38624 -5.34731 -5.30839 -5.26926 -5.24834 -5.22717 -5.20599 -5.18482 -5.16441 -5.14511 -5.12581 -5.10652 -5.08723 -5.06768 -5.02617 -4.98449 -4.94283 -4.90117 -4.85873 -4.81606 -4.77314 -4.73009 -4.68655 -4.64272 -4.59868 -4.55466 -4.51013 -4.465 -4.41987 -4.37451 -4.32913 -4.28309 -4.23682 -4.19044 -4.14382 -4.0967 -4.04944 -4.00219 -3.95473 -3.92376 -3.89251 -3.86126 -3.83001 -3.80004 -3.78266 -3.76528 -3.74791 -3.73053 -3.71298 -3.66366 -3.61426 -3.56488 -3.5155 -3.4655 -3.41529 -3.36499 -3.31462 -3.26383 -3.2129 -3.16174 -3.1106 -3.05915 -3.00741 -2.95564 -2.90362 -2.85148 -2.79908 -2.74668 -2.69419 -2.64136 -2.58828 -2.5352 -2.48214 -2.42906 -2.42879 -2.42853 -2.42826 -2.42799 -2.42773 -2.37432 -2.32093 -2.26755 -2.21418 -2.16054 -2.10636 -2.05221 -1.99808 -1.94382 -1.88944 -1.83483 -1.78023 -1.72562 -1.67098 -1.61631 -1.56138 -1.50644 -1.45146 -1.39652 -1.34167 -1.29397 -1.24627 -1.19858 -1.15091 -1.10517 -1.09734 -1.08952 -1.0817 -1.07387 -1.06604 -1.01074 -0.955486 -0.900244 -0.845014 -0.789775 -0.734316 -0.678985 -0.623808 -0.568723 -0.513617 -0.458271 -0.402937 -0.347753 -0.292913 -0.23804 -0.182906 -0.127948 -0.0730663 -0.0181941 0.0365044 0.0572581 0.0779056 0.0985518 0.119197 0.139566 0.173626 0.207683 0.241737 0.275787 0.309731 0.364377 0.418669 0.472953 0.527104 0.58115 0.635363 0.689566 0.743375 0.796845 0.850343 0.904019 0.957566 1.0109 1.06418 1.11708 1.15434 1.19136 1.22837 1.26537 1.30175 1.31767 1.33359 1.3495 1.36542 1.38125 1.43379 1.48611 1.53843 1.59067 1.64266 1.69475 1.74683 1.79833 1.84951 1.90071 1.95203 2.00328 2.05417 2.10479 2.15515 2.20215 2.24873 2.29532 2.3419 2.38797 2.39155 2.39513 2.3987 2.40228 2.40583 2.45537 2.50484 2.55432 2.60379 2.65287 2.70201 2.75094 2.79951 2.84768 2.89585 2.94408 2.99231 3.04013 3.08745 3.13467 3.18198 3.22889 3.27574 3.32259 3.3693 3.37667 3.38397 3.39126 3.39856 3.40586 3.44473 3.48361 3.52249 3.56136 3.59991 3.64575 3.69117 3.73644 3.78141 3.82626 3.87116 3.91606 3.96055 4.00445 4.04834 4.09231 4.13602 4.17956 4.22311 4.26623 4.28664 4.30686 4.32708 4.3473 4.36763 4.39017 4.4127 4.43524 4.45778 4.48013 4.52256 4.56458 4.6066 4.64847 4.69009 4.73179 4.77348 4.81464 4.85542 4.8962 4.93707 4.97786 5.01836 5.05868 5.09865 5.13619 5.17344 5.21069 5.24794 5.2858 5.28818 5.29055 5.29293 5.29531 5.29767 5.33693 5.37615 5.41538 5.4546 5.49351 5.53253 5.57129 5.60983 5.64813 5.68637 5.72474 5.76312 5.80122 5.83888 5.87652 5.91432 5.95197 5.98952 6.02708 6.0643 6.0853 6.1062 6.12709 6.14799 6.16905 6.18527 6.20148 6.2177 6.23392 6.25005 6.28709 6.32391 6.36072 6.39749 6.43414 6.47093 6.50773 6.54419 6.58055 6.61691 6.65341 6.6899 6.72633 6.76262 6.79876 6.83505 6.87132 6.90759 6.94386 6.98011 6.98189 6.98366 6.98544 6.98722 6.989 7.02348 7.05796 7.09244 7.12692 7.16142 7.19786 7.23419 7.27045 7.30678 7.34312 7.37961 7.4161 7.45268 7.48918 7.52568 7.56231 7.59909 7.63593 7.67277 7.70957 7.72332 7.73716 7.75101 7.76485 7.77861 7.80192 7.82523 7.84853 7.87184 7.89531 7.93282 7.97033 8.00784 8.04554 8.08339 8.12134 8.15929 8.19748 8.23585 8.27425 8.31273 8.35147 8.3904 8.42933 8.46834 8.48433 8.50051 8.5167 8.53289 8.54889 8.57228 8.59568 8.61908 8.64248 8.66618 8.70626 8.74649 8.78672 8.82732 8.86813 8.90898 8.94983 8.99114 9.03278 9.07445 9.11614 9.15833 9.20065 9.24297 9.28537 9.28986 9.29442 9.29898 9.30355 9.30809 9.34661 9.38512 9.42363 9.46221 9.50132 9.54504 9.58881 9.63286 9.67749 9.72214 9.76676 9.81154 9.85682 9.90212 9.94767 9.97141 9.99543 10.0195 10.0436 10.0675 10.0895 10.1115 10.1335 10.1556 10.1779 10.2244 10.2711 10.3179 10.365 10.4124 10.4596 10.5068 10.5545 10.6024 10.6504 10.6886 10.7271 10.7656 10.8041 10.8437 10.8531 10.8626 10.8721 10.8816 10.8912 10.9397 10.9883 11.0369 11.0856 11.1346 11.1834 11.2323 11.2809 11.3293 11.3776 11.4257 11.4749 11.5246 11.5743 11.624 11.6351 11.6447 11.6541 11.6636 11.6733 11.7089 11.7444 11.7799 11.8151 11.8452 11.8833 11.9268 11.9735 12.0324 12.0938 12.1547 12.2147 12.2518 12.286 12.3126 12.3231 12.3352 12.3484 12.3617 12.3758 12.3936 12.4113 12.4291 12.4484 12.4702 12.5066 12.5429 12.5791 12.6153 12.6513 12.687 12.7207 12.7527 12.7846 12.8159 12.8191 12.8221 12.8249 12.8278 12.8308 12.856 12.8811 12.9061 12.9304 12.9528 12.9766 13.0002 13.0217 13.0411 13.0604 13.078 13.0936 13.1077 13.1217 13.1345 13.1369 13.1384 13.1399 13.1413 13.1427 13.149 13.1552 13.1613 13.1671 13.1705 13.172 13.1718 13.1702 13.1648 13.1587 13.1493 13.1397 13.1261 13.1092 13.0917 13.0707 13.0451 13.0185 12.9917 12.9632 12.951 12.9373 12.9235 12.9097 12.8943 12.8698 12.8454 12.8208 12.7962 12.7687 12.7199 12.6675 12.615 12.5605 12.5014 12.4375 12.3727 12.3037 12.228 12.1521 12.0711 11.99 11.9026 11.8089 11.7151 11.6159 11.5143 11.4075 11.2981 11.1857 11.0673 10.9416 10.8146 10.6876 10.5552 10.4124 10.2648 10.1172 9.96957 9.82059 9.7559 9.68911 9.62232 9.55552 9.47773 9.37531 9.27286 9.17037 9.06785 8.96222 8.76994 8.57647 8.38294 8.18934 7.99261 7.78094 7.55171 7.32234 7.09284 6.83723 6.57197 6.32341 6.077 5.836 5.60968 5.37553 5.08957 4.76153 4.37363 3.94235 3.49549 3.088 2.80824 2.66832 2.55964 2.44676 2.33412 1.81729 0.907973 0